# vtk DataFile Version 2.0
vtk output
ASCII
DATASET UNSTRUCTURED_GRID
POINTS 2762 float
0.332541 133.304000 3.481710
-1.391940 132.332000 4.802120
0.209204 133.334000 3.555350
0.086038 133.347000 3.659830
-0.026576 133.355000 3.755440
-0.131865 133.360000 3.847630
-0.232417 133.343000 3.942960
-0.321738 133.300000 4.032810
-0.414311 133.255000 4.117810
-0.502607 133.195000 4.194810
-0.587636 133.127000 4.265420
-0.670757 133.055000 4.329450
-0.754221 132.980000 4.390350
-0.833666 132.898000 4.449140
-0.917453 132.818000 4.504950
-1.004960 132.740000 4.559640
-1.087860 132.656000 4.610730
-1.170280 132.570000 4.660520
-1.260360 132.493000 4.711100
-1.339460 132.402000 4.758580
2.098790 126.931000 0.201690
3.268170 126.214000 4.299810
2.147790 129.389000 8.137120
0.505885 127.371000 7.588750
-2.669340 130.215000 6.022490
-2.660630 130.256000 6.010370
-2.656080 130.300000 5.997360
-2.648020 130.342000 5.979330
-2.643270 130.385000 5.959310
-2.642130 130.427000 5.937560
-2.638010 130.466000 5.911990
-2.635730 130.504000 5.884790
-2.640360 130.538000 5.855230
-2.643770 130.567000 5.820240
-2.647100 130.585000 5.779560
-2.655280 130.595000 5.735250
-2.662960 130.597000 5.689800
-2.665460 130.594000 5.643540
-2.671110 130.592000 5.597720
-2.679580 130.596000 5.553060
-2.677590 130.608000 5.509300
-2.671780 130.638000 5.474590
-2.656880 130.669000 5.444250
-2.646740 130.706000 5.418610
-2.633580 130.741000 5.389420
-2.618670 130.775000 5.354080
-2.605990 130.804000 5.308930
-2.610850 130.835000 5.249140
-2.607890 130.864000 5.155960
-2.558960 130.984000 5.151610
-2.496030 131.098000 5.161810
-2.433690 131.210000 5.174750
-2.358290 131.318000 5.180220
-2.285090 131.437000 5.179140
-2.210710 131.557000 5.170520
-2.109370 131.664000 5.145920
-2.028230 131.788000 5.119680
-1.916510 131.874000 5.077250
-1.817470 131.963000 5.032070
-1.719920 132.048000 4.981170
-1.626340 132.134000 4.928110
-1.539640 132.222000 4.875270
-1.446100 132.299000 4.821050
2.074820 126.948000 0.186983
2.047190 126.968000 0.169269
2.017770 126.988000 0.149466
1.988060 127.010000 0.129552
1.958130 127.031000 0.108321
1.927850 127.051000 0.086174
1.896920 127.071000 0.064516
1.865420 127.092000 0.045010
1.833840 127.117000 0.031303
1.800780 127.141000 0.022246
1.767800 127.166000 0.017979
1.736760 127.194000 0.018515
1.706320 127.222000 0.019866
1.677950 127.253000 0.021787
1.654120 127.287000 0.023239
1.635170 127.326000 0.023159
1.623460 127.366000 0.018890
1.615540 127.406000 0.012193
1.612320 127.445000 0.000157
1.612340 127.482000 -0.017035
1.614700 127.516000 -0.039201
1.618160 127.547000 -0.065624
1.621260 127.574000 -0.095734
1.621300 127.598000 -0.128949
1.617500 127.615000 -0.165300
1.609200 127.625000 -0.204782
1.596370 127.628000 -0.245337
1.579310 127.629000 -0.287614
1.554240 127.635000 -0.333459
1.520730 127.654000 -0.382028
1.477840 127.709000 -0.377636
1.452690 127.760000 -0.332048
1.426220 127.808000 -0.282772
1.398530 127.852000 -0.230371
1.365640 127.886000 -0.174892
1.331210 127.917000 -0.116227
1.292440 127.941000 -0.056636
1.250510 127.961000 0.003580
1.211100 127.981000 0.065227
1.169240 127.997000 0.126989
1.130530 128.015000 0.190033
1.091580 128.031000 0.253606
1.052800 128.045000 0.318532
1.019070 128.062000 0.385137
0.986998 128.077000 0.453198
0.954287 128.090000 0.522733
0.921669 128.099000 0.592282
0.889141 128.106000 0.660683
0.855489 128.111000 0.728706
0.820359 128.110000 0.794534
0.782276 128.107000 0.857846
0.741423 128.098000 0.917976
0.697716 128.084000 0.976100
0.650315 128.070000 1.032960
0.600285 128.053000 1.089320
0.549215 128.040000 1.148220
0.496875 128.030000 1.209780
0.437309 128.007000 1.263930
0.374452 127.975000 1.311780
0.315056 127.943000 1.365140
0.259027 127.912000 1.422080
0.203891 127.877000 1.479020
0.149800 127.843000 1.535810
0.097705 127.806000 1.593890
0.043609 127.771000 1.652390
-0.007828 127.732000 1.712300
-0.056880 127.690000 1.774670
-0.108940 127.648000 1.840890
-0.154905 127.607000 1.916020
-0.206981 127.564000 2.001610
-0.314336 127.535000 2.056590
-0.405810 127.516000 2.122780
-0.493060 127.503000 2.190670
-0.579799 127.494000 2.257770
-0.664255 127.492000 2.329780
-0.750608 127.489000 2.399140
-0.837970 127.489000 2.468630
-0.923742 127.496000 2.541510
-1.014780 127.498000 2.610180
-1.100750 127.508000 2.682570
-1.185460 127.524000 2.758930
-1.274040 127.537000 2.832670
-1.359800 127.555000 2.909490
-1.447910 127.572000 2.985410
-1.537700 127.587000 3.059410
-1.623200 127.610000 3.136060
-1.706130 127.637000 3.214270
-1.795140 127.658000 3.284970
-1.877020 127.690000 3.360680
-1.962120 127.720000 3.432730
-2.044870 127.756000 3.506000
-2.122210 127.799000 3.579750
-2.203920 127.840000 3.647260
-2.275890 127.891000 3.717200
-2.349340 127.940000 3.782240
-2.417370 127.994000 3.847120
-2.478160 128.051000 3.912240
-2.536370 128.109000 3.977110
-2.593240 128.168000 4.040620
-2.642230 128.232000 4.105790
-2.686940 128.300000 4.170360
-2.725480 128.372000 4.235780
-2.763010 128.447000 4.299050
-2.793030 128.527000 4.360820
-2.814330 128.612000 4.420720
-2.833370 128.699000 4.478060
-2.857420 128.788000 4.534000
-2.866340 128.882000 4.586790
-2.875230 128.977000 4.637930
-2.886790 129.073000 4.688830
-2.885800 129.172000 4.737360
-2.892240 129.271000 4.785210
-2.893310 129.372000 4.831800
-2.890410 129.474000 4.876840
-2.892410 129.577000 4.920520
-2.880380 129.681000 4.959170
-2.876240 129.787000 4.995740
-2.869490 129.896000 5.027370
-2.849990 130.005000 5.051060
-2.837890 130.118000 5.071950
-2.807790 130.228000 5.085810
-2.785810 130.341000 5.097720
-2.753720 130.453000 5.105720
-2.718960 130.566000 5.111940
-2.681360 130.680000 5.118170
-2.637870 130.791000 5.141740
-2.608160 130.861000 5.164640
3.259760 126.214000 4.271360
3.253660 126.211000 4.236960
3.248280 126.208000 4.200470
3.241500 126.206000 4.161700
3.232020 126.204000 4.121570
3.217950 126.204000 4.080970
3.196860 126.206000 4.042180
3.165880 126.213000 4.009780
3.127750 126.221000 3.986490
3.086010 126.231000 3.970670
3.042380 126.241000 3.958980
2.997410 126.250000 3.949360
2.950890 126.258000 3.941010
2.903860 126.266000 3.933420
2.857080 126.273000 3.925860
2.810050 126.280000 3.919390
2.762950 126.286000 3.912210
2.715680 126.291000 3.905110
2.669200 126.297000 3.895650
2.622590 126.301000 3.888060
2.576090 126.306000 3.877330
2.530410 126.312000 3.863000
2.485740 126.319000 3.845870
2.444230 126.328000 3.824250
2.405850 126.340000 3.797960
2.372820 126.356000 3.767850
2.346770 126.377000 3.734560
2.328020 126.400000 3.698960
2.316010 126.427000 3.661420
2.309670 126.453000 3.623210
2.306580 126.478000 3.582670
2.304280 126.499000 3.539980
2.301480 126.512000 3.495030
2.296070 126.518000 3.448270
2.284990 126.518000 3.402260
2.261310 126.512000 3.362040
2.226110 126.505000 3.334640
2.180910 126.500000 3.324350
2.133770 126.496000 3.327220
2.087760 126.489000 3.336590
2.041660 126.482000 3.344560
1.995520 126.476000 3.351080
1.948610 126.473000 3.350540
1.901660 126.472000 3.344190
1.855930 126.475000 3.330350
1.813190 126.482000 3.310040
1.777560 126.496000 3.282820
1.752480 126.514000 3.248540
1.736110 126.534000 3.210290
1.726530 126.554000 3.167960
1.719700 126.573000 3.123670
1.712440 126.593000 3.077010
1.701890 126.614000 3.029240
1.684020 126.635000 2.982080
1.657180 126.656000 2.937470
1.620550 126.677000 2.898340
1.578470 126.697000 2.863920
1.535970 126.717000 2.830800
1.492340 126.736000 2.798030
1.446550 126.752000 2.766710
1.401190 126.762000 2.732800
1.356690 126.766000 2.696180
1.314300 126.764000 2.659280
1.272860 126.760000 2.620630
1.229600 126.753000 2.584050
1.188000 126.746000 2.546600
1.146910 126.740000 2.508190
1.107240 126.735000 2.467460
1.067530 126.734000 2.426750
1.029570 126.738000 2.384960
0.997879 126.750000 2.339780
0.973983 126.772000 2.293050
0.958011 126.802000 2.246620
0.948663 126.842000 2.203640
0.943968 126.889000 2.166210
0.942204 126.943000 2.135330
0.939725 127.001000 2.108100
0.935879 127.062000 2.083300
0.931476 127.127000 2.059920
0.920103 127.193000 2.036830
0.904244 127.260000 2.013970
0.883838 127.327000 1.992950
0.856659 127.393000 1.972400
0.822248 127.455000 1.954230
0.780678 127.511000 1.937690
0.730166 127.560000 1.923610
0.670656 127.596000 1.911710
0.602426 127.617000 1.901820
0.529233 127.623000 1.895390
0.454197 127.617000 1.892910
0.378726 127.604000 1.895570
0.303871 127.586000 1.902910
0.230573 127.567000 1.916190
0.162087 127.547000 1.935780
0.098050 127.530000 1.956510
0.036989 127.514000 1.975420
-0.024436 127.503000 1.987640
-0.088428 127.510000 1.989130
-0.185560 127.582000 1.966400
0.490343 127.394000 7.599100
0.455412 127.421000 7.600000
0.416676 127.449000 7.598390
0.374792 127.475000 7.593320
0.332679 127.499000 7.585440
0.291082 127.524000 7.576190
0.251151 127.553000 7.566940
0.213382 127.584000 7.559150
0.176675 127.618000 7.552770
0.141249 127.654000 7.547180
0.104154 127.688000 7.541770
0.065138 127.722000 7.536740
0.022927 127.752000 7.531700
-0.019341 127.782000 7.526130
-0.062794 127.811000 7.520370
-0.104354 127.843000 7.513620
-0.140608 127.881000 7.505770
-0.174406 127.922000 7.497520
-0.208137 127.965000 7.489420
-0.243546 128.008000 7.481760
-0.281039 128.051000 7.475290
-0.322654 128.091000 7.469150
-0.365740 128.129000 7.463510
-0.410714 128.165000 7.457930
-0.458940 128.198000 7.452160
-0.507787 128.228000 7.445930
-0.558110 128.257000 7.438990
-0.606108 128.289000 7.430860
-0.648167 128.328000 7.421430
-0.681732 128.374000 7.411120
-0.704050 128.427000 7.402380
-0.717200 128.481000 7.395940
-0.724234 128.538000 7.389250
-0.728858 128.595000 7.383860
-0.732886 128.652000 7.379470
-0.738425 128.710000 7.375530
-0.746462 128.768000 7.372020
-0.758078 128.825000 7.368770
-0.775197 128.880000 7.365730
-0.793431 128.936000 7.362050
-0.809772 128.991000 7.357360
-0.819455 129.049000 7.350520
-0.822354 129.109000 7.342230
-0.819904 129.170000 7.335140
-0.814510 129.232000 7.331220
-0.807498 129.295000 7.330600
[...]
CELL_DATA 2761
SCALARS flow float
LOOKUP_TABLE default
2.137165798225e-03
2.137165798225e-03
2.137165798225e-03
2.137165798224e-03
5.225321982644e-06
5.225321982644e-06
5.225321982644e-06
5.225321982644e-06
5.225321982644e-06
5.225321982644e-06
5.225321982644e-06
5.225321982644e-06
5.225321982644e-06
5.225321982644e-06
5.225321982644e-06
5.225321982644e-06
5.225321982644e-06
5.225321982644e-06
5.225321982644e-06
5.225321982644e-06
5.225321982644e-06
5.225321982644e-06
5.225321982644e-06
5.225321982644e-06
5.225321982644e-06
5.225321982644e-06
5.225321982644e-06
5.225321982644e-06
5.225321982644e-06
5.225321982644e-06
5.225321982644e-06
5.225321982644e-06
5.225321982644e-06
5.225321982644e-06
5.225321982644e-06
5.225321982644e-06
5.225321982644e-06
5.225321982644e-06
5.225321982644e-06
5.225321982644e-06
5.225321982644e-06
5.225321982644e-06
5.225321982644e-06
5.225321982644e-06
5.225321982644e-06
5.225321982644e-06
5.225321982644e-06
5.225321982644e-06
5.225321982644e-06
5.225321982644e-06
5.225321982644e-06
5.225321982644e-06
5.225321982644e-06
5.225321982644e-06
5.225321982644e-06
5.225321982644e-06
5.225321982644e-06
5.225321982644e-06
5.225321982644e-06
5.225321982644e-06
5.225321982644e-06
2.090136990193e-05
2.090136990192e-05
2.090136990192e-05
2.090136990192e-05
2.090136990192e-05
2.090136990192e-05
2.090136990192e-05
2.090136990192e-05
2.090136990192e-05
2.090136990192e-05
2.090136990192e-05
2.090136990192e-05
2.090136990192e-05
2.090136990192e-05
2.090136990192e-05
2.090136990192e-05
2.090136990192e-05
2.090136990192e-05
2.090136990192e-05
2.090136990192e-05
2.090136990192e-05
2.090136990192e-05
2.090136990192e-05
2.090136990192e-05
2.090136990192e-05
2.090136990192e-05
2.090136990192e-05
2.090136990192e-05
2.090136990192e-05
1.045065963525e-05
1.045065963525e-05
1.045065963525e-05
1.045065963525e-05
1.045065963525e-05
1.045065963525e-05
1.045065963525e-05
1.045065963525e-05
1.045065963525e-05
1.045065963525e-05
1.045065963525e-05
1.045065963525e-05
1.045065963525e-05
1.045065963525e-05
1.045065963525e-05
1.045065963525e-05
1.045065963525e-05
1.045065963525e-05
1.045065963525e-05
1.045065963525e-05
1.045065963525e-05
1.045065963525e-05
1.045065963525e-05
1.045065963525e-05
1.045065963525e-05
1.045065963525e-05
1.045065963525e-05
1.045065963525e-05
1.045065963525e-05
1.045065963525e-05
1.045065963525e-05
1.045065963525e-05
1.045065963525e-05
1.045065963525e-05
1.045065963525e-05
1.045065963525e-05
1.045065963525e-05
1.045065963525e-05
1.045065963525e-05
1.045065963525e-05
1.045065963525e-05
1.045065963525e-05
1.045065963525e-05
1.045065963525e-05
1.045065963525e-05
1.045065963525e-05
1.045065963525e-05
1.045065963525e-05
1.045065963525e-05
1.045065963525e-05
1.045065963525e-05
1.045065963525e-05
1.045065963525e-05
1.045065963525e-05
1.045065963525e-05
1.045065963525e-05
1.045065963525e-05
1.045065963525e-05
1.045065963525e-05
1.045065963525e-05
1.045065963525e-05
1.045065963525e-05
1.045065963525e-05
1.045065963525e-05
1.045065963525e-05
1.045065963525e-05
1.045065963525e-05
1.045065963525e-05
1.045065963525e-05
1.045065963525e-05
7.628991884369e-04
7.628991884368e-04
7.628991884368e-04
7.628991884368e-04
7.628991884368e-04
7.628991884367e-04
7.628991884367e-04
7.628991884367e-04
7.628991884367e-04
7.628991884367e-04
7.628991884368e-04
7.628991884367e-04
7.628991884367e-04
7.628991884368e-04
7.628991884368e-04
7.628991884368e-04
7.628991884368e-04
7.628991884368e-04
7.628991884368e-04
7.628991884368e-04
7.628991884368e-04
7.628991884368e-04
7.628991884368e-04
7.628991884367e-04
7.628991884368e-04
7.628991884369e-04
7.628991884369e-04
7.628991884370e-04
7.628991884370e-04
7.628991884369e-04
7.628991884368e-04
7.628991884367e-04
7.628991884368e-04
7.628991884368e-04
7.628991884368e-04
4.180267203059e-04
4.180267203059e-04
4.180267203059e-04
4.180267203059e-04
4.180267203059e-04
4.180267203059e-04
4.180267203058e-04
4.180267203059e-04
4.180267203058e-04
4.180267203058e-04
4.180267203058e-04
4.180267203058e-04
4.180267203058e-04
4.180267203058e-04
1.410837197049e-04
1.410837197049e-04
1.410837197049e-04
1.410837197049e-04
1.410837197049e-04
1.410837197049e-04
1.410837197049e-04
1.410837197049e-04
1.410837197049e-04
1.410837197049e-04
1.410837197049e-04
1.410837197049e-04
1.410837197049e-04
1.410837197049e-04
1.410837197049e-04
3.553231934095e-04
3.553231934096e-04
3.553231934095e-04
3.553231934096e-04
3.553231934096e-04
3.553231934096e-04
3.553231934096e-04
3.553231934096e-04
3.553231934096e-04
3.553231934096e-04
3.553231934096e-04
3.553231934096e-04
3.553231934096e-04
3.553231934096e-04
3.553231934096e-04
3.553231934096e-04
3.553231934096e-04
3.553231934096e-04
3.553231934096e-04
3.553231934096e-04
3.553231934096e-04
3.553231934096e-04
3.553231934096e-04
3.553231934096e-04
3.553231934095e-04
3.553231934096e-04
3.553231934096e-04
3.553231934096e-04
3.553231934096e-04
3.553231934096e-04
3.553231934096e-04
3.553231934096e-04
3.553231934096e-04
3.657766328266e-05
3.657766328266e-05
3.657766328266e-05
3.657766328266e-05
3.657766328266e-05
3.657766328266e-05
3.657766328266e-05
3.657766328266e-05
3.657766328266e-05
3.657766328266e-05
5.225527557087e-06
5.225527557087e-06
5.225527557087e-06
5.225527557087e-06
5.225527557087e-06
5.225527557087e-06
5.225527557087e-06
5.225527557087e-06
5.225527557087e-06
5.225527557087e-06
5.225527557087e-06
5.225527557087e-06
1.045058314999e-04
1.045058314999e-04
1.045058314999e-04
1.045058314999e-04
1.045058314999e-04
1.045058314999e-04
1.045058314999e-04
1.045058314999e-04
1.045058314999e-04
1.045058314999e-04
1.045058314999e-04
1.045015238503e-05
1.045015238503e-05
1.045015238503e-05
1.045015238503e-05
1.045015238503e-05
1.045015238503e-05
1.045015238503e-05
1.045015238503e-05
5.224788776508e-06
5.224788776508e-06
5.224788776508e-06
5.224788776508e-06
5.224788776508e-06
2.612670761845e-05
2.612670761845e-05
2.612670761845e-05
2.612670761845e-05
2.612670761845e-05
2.612670761845e-05
2.612670761845e-05
2.612670761845e-05
2.612670761845e-05
2.612670761845e-05
2.612670761845e-05
2.612670761845e-05
2.612670761845e-05
2.090138563580e-05
2.090138563580e-05
2.090138563580e-05
2.090138563580e-05
2.090138563580e-05
2.090138563580e-05
6.792957672219e-05
6.792957672220e-05
6.792957672220e-05
6.792957672219e-05
6.792957672220e-05
6.792957672220e-05
6.792957672220e-05
6.792957672219e-05
6.792957672219e-05
6.792957672219e-05
6.792957672220e-05
6.792957672220e-05
6.792957672220e-05
6.792957672220e-05
6.792957672219e-05
6.792957672219e-05
6.792957672219e-05
6.792957672219e-05
6.792957672220e-05
6.792957672220e-05
6.792957672220e-05
6.792957672220e-05
6.792957672220e-05
6.792957672220e-05
6.792957672220e-05
6.792957672220e-05
6.792957672220e-05
6.792957672220e-05
6.792957672220e-05
6.792957672220e-05
6.792957672220e-05
6.792957672220e-05
6.792957672220e-05
6.792957672220e-05
6.792957672220e-05
6.792957672220e-05
6.792957672220e-05
6.792957672220e-05
6.792957672220e-05
6.792957672220e-05
6.792957672220e-05
6.792957672220e-05
6.792957672220e-05
6.792957672220e-05
6.792957672220e-05
6.792957672220e-05
6.792957672220e-05
6.792957672220e-05
6.792957672220e-05
6.792957672220e-05
6.792957672220e-05
6.792957672220e-05
6.792957672220e-05
6.792957672220e-05
6.792957672220e-05
6.792957672220e-05
6.792957672220e-05
6.792957672220e-05
4.702807752037e-05
1.567606806497e-05
5.225422646789e-06
5.225422646789e-06
5.225422646789e-06
5.225422646789e-06
5.225422646789e-06
5.225422646789e-06
5.225422646789e-06
5.225422646789e-06
5.225422646789e-06
5.225422646789e-06
5.225422646789e-06
5.225422646789e-06
5.225422646789e-06
5.225422646789e-06
5.225422646789e-06
5.225422646789e-06
5.225422646789e-06
5.225422646789e-06
5.225422646789e-06
5.225422646789e-06
5.225422646789e-06
5.225422646789e-06
5.225422646789e-06
5.225422646789e-06
5.225422646789e-06
5.225422646789e-06
5.225422646789e-06
5.225422646789e-06
5.225422646789e-06
5.225317570829e-06
5.225317570829e-06
5.225317570829e-06
5.225317570829e-06
5.225317570829e-06
5.225317570829e-06
5.225317570829e-06
5.225317570829e-06
5.225317570829e-06
5.225317570829e-06
5.225317570829e-06
5.225317570829e-06
5.225317570829e-06
5.225317570829e-06
5.225317570829e-06
5.225317570829e-06
5.225317570829e-06
5.225317570829e-06
5.225317570829e-06
5.225317570829e-06
5.225317570829e-06
5.225317570829e-06
5.225317570829e-06
5.225317570829e-06
5.225317570829e-06
5.225317570829e-06
5.225317570829e-06
8.465080081547e-04
5.016352700689e-04
5.016352700689e-04
5.016352700689e-04
5.016352700689e-04
5.016352700689e-04
3.030728580988e-04
3.030728580988e-04
3.030728580988e-04
3.030728580988e-04
3.030728580987e-04
3.030728580987e-04
3.030728580987e-04
3.030728580987e-04
3.030728580987e-04
3.030728580987e-04
3.030728580988e-04
3.030728580988e-04
3.030728580987e-04
3.030728580988e-04
3.030728580988e-04
3.030728580988e-04
3.030728580988e-04
3.030728580988e-04
3.030728580988e-04
3.030728580988e-04
3.030728580988e-04
5.225776454646e-06
5.225776454646e-06
5.225776454646e-06
2.090149920185e-05
2.090149920185e-05
5.225428017823e-06
5.225428017824e-06
5.225428017823e-06
5.225428017824e-06
5.225428017824e-06
5.225428017824e-06
5.225428017824e-06
5.225428017824e-06
5.225428017824e-06
5.225428017824e-06
5.225428017824e-06
5.225428017824e-06
5.225428017823e-06
5.225428017823e-06
5.225428017823e-06
5.225428017823e-06
5.225428017824e-06
5.225428017824e-06
5.225428017824e-06
5.225428017824e-06
5.225428017824e-06
5.225428017824e-06
5.225428017824e-06
5.225428017824e-06
5.225428017824e-06
5.225428017824e-06
5.225428017824e-06
5.225428017824e-06
5.225428017824e-06
1.724354082222e-04
1.724354082222e-04
1.724354082222e-04
1.724354082222e-04
1.724354082222e-04
1.724354082222e-04
1.724354082222e-04
1.290657790069e-03
1.290657790069e-03
1.290657790069e-03
1.290657790069e-03
1.290657790069e-03
1.290657790069e-03
1.290657790069e-03
1.290657790069e-03
1.290657790069e-03
1.290657790069e-03
1.290657790069e-03
1.290657790069e-03
1.290657790069e-03
1.290657790069e-03
1.290657790069e-03
1.290657790069e-03
1.290657790069e-03
1.290657790069e-03
1.290657790069e-03
1.290657790069e-03
1.290657790069e-03
1.290657790069e-03
1.290657790069e-03
1.290657790069e-03
1.290657790069e-03
1.290657790068e-03
1.118222381846e-03
1.118222381846e-03
1.118222381846e-03
1.118222381846e-03
1.118222381846e-03
1.118222381846e-03
1.118222381846e-03
1.118222381846e-03
1.118222381846e-03
1.118222381846e-03
1.118222381846e-03
1.118222381846e-03
1.118222381846e-03
1.118222381846e-03
1.118222381846e-03
1.118222381846e-03
1.118222381846e-03
1.118222381846e-03
1.118222381846e-03
1.118222381846e-03
1.118222381846e-03
1.118222381846e-03
1.118222381846e-03
1.118222381846e-03
1.118222381846e-03
1.118222381846e-03
1.118222381846e-03
1.118222381846e-03
1.118222381846e-03
1.118222381846e-03
1.118222381846e-03
1.118222381846e-03
1.118222381846e-03
1.118222381846e-03
1.118222381846e-03
1.118222381846e-03
1.118222381846e-03
1.118222381846e-03
1.118222381846e-03
1.118222381846e-03
1.118222381846e-03
1.118222381846e-03
1.118222381846e-03
1.118222381846e-03
1.118222381846e-03
1.118222381846e-03
1.118222381847e-03
1.118222381846e-03
1.118222381846e-03
1.118222381846e-03
1.118222381846e-03
1.118222381846e-03
1.118222381846e-03
1.118222381846e-03
1.118222381846e-03
1.118222381846e-03
1.118222381846e-03
1.118222381846e-03
1.118222381846e-03
7.085274386209e-03
7.085274386209e-03
7.085274386209e-03
1.043214502651e-04
1.043214502651e-04
1.043214502651e-04
1.043214502651e-04
1.043214502651e-04
1.043214502651e-04
1.043214502651e-04
1.043214502651e-04
1.043214502651e-04
1.043214502651e-04
1.043214502651e-04
1.043214502651e-04
1.043214502651e-04
1.043214502651e-04
1.043214502651e-04
5.216078716946e-05
5.216078716946e-05
5.216078716946e-05
5.216078716946e-05
5.216078716946e-05
5.216078716946e-05
5.216078716946e-05
5.216078716946e-05
3.477382977584e-05
3.477382977584e-05
3.477382977584e-05
3.477382977584e-05
3.477382977584e-05
3.477382977584e-05
3.477382977584e-05
3.477382977584e-05
3.477382977584e-05
3.477382977584e-05
1.738658919015e-05
1.738658919015e-05
1.738658919015e-05
1.738658919015e-05
1.738658919015e-05
1.738658919015e-05
1.738658919015e-05
1.738658919015e-05
1.738658919015e-05
1.738658919015e-05
1.738658919015e-05
6.922553351884e-05
6.922553351884e-05
6.922553351884e-05
6.922553351884e-05
6.922553351884e-05
6.922553351884e-05
6.922553351884e-05
6.922553351884e-05
6.922553351884e-05
6.922553351884e-05
6.922553351884e-05
6.922553351884e-05
6.922553351884e-05
6.922553351884e-05
6.922553351884e-05
6.922553351884e-05
6.922553351884e-05
6.922553351884e-05
6.922553351884e-05
6.922553351884e-05
6.922553351884e-05
6.922553351884e-05
6.922553351884e-05
6.922553351884e-05
6.922553351884e-05
6.922553351884e-05
6.922553351883e-05
6.922553351884e-05
6.922553351884e-05
6.922553351884e-05
6.922553351884e-05
6.922553351884e-05
6.922553351884e-05
6.922553351884e-05
6.922553351884e-05
6.922553351884e-05
6.922553351884e-05
6.922553351884e-05
6.922553351884e-05
6.922553351885e-05
6.922553351885e-05
6.922553351885e-05
6.922553351884e-05
6.922553351885e-05
6.922553351884e-05
6.922553351884e-05
6.922553351884e-05
6.922553351884e-05
6.922553351884e-05
6.922553351885e-05
6.922553351885e-05
6.922553351884e-05
6.922553351885e-05
6.922553351884e-05
6.922553351885e-05
6.922553351885e-05
6.922553351885e-05
6.922553351885e-05
6.922553351885e-05
6.922553351885e-05
6.922553351885e-05
6.922553351885e-05
6.922553351885e-05
5.443426407749e-04
5.443426407749e-04
5.443426407750e-04
5.443426407749e-04
5.443426407750e-04
5.443426407749e-04
5.443426407750e-04
5.443426407750e-04
5.443426407750e-04
5.443426407749e-04
5.443426407749e-04
5.443426407749e-04
5.443426407749e-04
5.443426407750e-04
5.443426407750e-04
5.443426407750e-04
5.443426407750e-04
1.360865802882e-04
1.700936451043e-05
2.292968786367e-03
2.292968786367e-03
2.292968786367e-03
2.292968786367e-03
2.292968786367e-03
2.292968786367e-03
2.292968786367e-03
2.292968786367e-03
2.030655608981e-03
2.030655608980e-03
2.030655608980e-03
2.030655608980e-03
2.030655608980e-03
2.030655608980e-03
2.030655608980e-03
2.030655608981e-03
2.030655608981e-03
2.030655608980e-03
2.030655608980e-03
2.030655608980e-03
2.707525328295e-04
8.358495929205e-04
8.358495929205e-04
8.358495929205e-04
4.542684178726e-04
2.180492025992e-04
2.180492025992e-04
2.180492025992e-04
2.180492025992e-04
2.180492025992e-04
2.180492025992e-04
2.180492025992e-04
2.180492025992e-04
9.085381068227e-05
9.085381068226e-05
9.085381068227e-05
9.085381068226e-05
9.085381068226e-05
9.085381068226e-05
9.085381068226e-05
9.085381068226e-05
9.085381068226e-05
9.085381068226e-05
9.085381068226e-05
9.085381068226e-05
9.085381068226e-05
9.085381068226e-05
9.085381068226e-05
9.085381068226e-05
9.085381068226e-05
9.085381068226e-05
1.817134783886e-05
1.817134783886e-05
1.817134783886e-05
1.817134783886e-05
1.817134783886e-05
1.817134783886e-05
1.817134783886e-05
1.817134783886e-05
1.817134783886e-05
1.817134783886e-05
1.817134783886e-05
5.088002138394e-04
5.088002138394e-04
5.088002138394e-04
5.088002138394e-04
5.088002138394e-04
5.088002138394e-04
5.088002138394e-04
5.088002138394e-04
5.088002138394e-04
5.088002138394e-04
5.088002138394e-04
5.088002138393e-04
5.088002138393e-04
5.088002138393e-04
5.088002138394e-04
5.088002138393e-04
5.088002138394e-04
5.088002138393e-04
5.088002138393e-04
5.088002138393e-04
5.088002138393e-04
5.088002138393e-04
5.088002138393e-04
5.088002138393e-04
5.088002138393e-04
5.088002138393e-04
1.328994379118e-11
1.328993592089e-11
1.328993407377e-11
1.328993233594e-11
1.328993421088e-11
1.328993664728e-11
1.328993050213e-11
1.328993103479e-11
1.328993025192e-11
1.328992654278e-11
1.328993842290e-11
1.328993335900e-11
1.328992310982e-11
1.328992417307e-11
1.328992252638e-11
1.328992252638e-11
1.328992252638e-11
1.328992252638e-11
1.328992252638e-11
1.328992252638e-11
1.328992252638e-11
1.328992252638e-11
1.328992252638e-11
1.328992252638e-11
1.328991671076e-11
1.328991005496e-11
1.328991801946e-11
2.623131906769e-04
2.623131906769e-04
2.623131906769e-04
2.623131906769e-04
2.623131906769e-04
6.172109512548e-05
6.172109512548e-05
6.172109512548e-05
6.172109512548e-05
6.172109512548e-05
6.172109512548e-05
6.172109512548e-05
6.172109512548e-05
6.172109512548e-05
6.172109512548e-05
6.172109512548e-05
6.172109512548e-05
6.172109512548e-05
6.172109512548e-05
6.172109512548e-05
6.172109512548e-05
6.172109512548e-05
6.172109512548e-05
6.172109512548e-05
6.172109512548e-05
6.172109512548e-05
6.172109512548e-05
6.172109512548e-05
6.172109512548e-05
6.172109512548e-05
6.172109512548e-05
6.172109512548e-05
6.172109512548e-05
6.172109512548e-05
6.172109512548e-05
6.172109512548e-05
6.172109512548e-05
6.172109512548e-05
6.172109512548e-05
6.172109512548e-05
6.172109512548e-05
6.172109512548e-05
6.172109512548e-05
6.172109512548e-05
6.172109512548e-05
3.086049963862e-05
3.086049963862e-05
3.086049963862e-05
3.086049963862e-05
3.086049963862e-05
3.086049963862e-05
3.086049963862e-05
3.086049963862e-05
3.086049963862e-05
3.086049963862e-05
3.086049963862e-05
3.086049963862e-05
3.086049963862e-05
3.086049963862e-05
3.086049963862e-05
3.086049963862e-05
3.086049963862e-05
3.086049963862e-05
3.086049963862e-05
3.086049963862e-05
3.086049963862e-05
3.086049963862e-05
3.086049963862e-05
3.086049963862e-05
3.086049963862e-05
3.086049963862e-05
3.086049963862e-05
1.543029905657e-05
1.543029905657e-05
1.543029905657e-05
2.906536960661e-03
2.906536960661e-03
2.906536960660e-03
2.906536960660e-03
2.906536960660e-03
2.906536960660e-03
2.906536960660e-03
2.906536960660e-03
2.906536960661e-03
2.906536960661e-03
5.740624566159e-03
2.837311427142e-03
2.837311427142e-03
2.837311427142e-03
2.837311427142e-03
2.837311427142e-03
2.837311427142e-03
2.837311427142e-03
2.837311427142e-03
2.837311427142e-03
2.837311427142e-03
2.837311427142e-03
2.837311427142e-03
2.837311427142e-03
2.837311427142e-03
2.837311427142e-03
2.837311427142e-03
2.837311427142e-03
2.837311427142e-03
2.837311427142e-03
2.837311427142e-03
2.837311427142e-03
2.837311427142e-03
2.837311427142e-03
2.837311427142e-03
2.837311427142e-03
2.837311427142e-03
2.837311427142e-03
2.837311427142e-03
2.837311427142e-03
2.837311427142e-03
2.837311427142e-03
2.837311427142e-03
2.837311427142e-03
2.837311427142e-03
2.837311427142e-03
1.043228153970e-04
1.043228153970e-04
1.043228153970e-04
1.043228153970e-04
1.043228153970e-04
1.043228153970e-04
1.043228153970e-04
1.043228153970e-04
1.043228153970e-04
1.043228153970e-04
1.043228153970e-04
1.043228153970e-04
1.043228153970e-04
1.043228153970e-04
1.043228153970e-04
1.043228153970e-04
1.043228153970e-04
1.043228153970e-04
1.043228153970e-04
1.043228153970e-04
1.043228153970e-04
1.043228153970e-04
1.043228153970e-04
6.954937929107e-05
6.954937929107e-05
6.954937929107e-05
6.954937929107e-05
6.954937929107e-05
6.954937929107e-05
6.954937929107e-05
6.954937929107e-05
6.954937929107e-05
6.954937929107e-05
6.954937929108e-05
6.954937929108e-05
6.954937929108e-05
6.954937929108e-05
6.954937929108e-05
6.954937929108e-05
6.954937929108e-05
6.954937929107e-05
6.954937929107e-05
6.954937929107e-05
6.954937929107e-05
1.344649820050e-03
1.344649820050e-03
1.344649820050e-03
1.344649820050e-03
1.344649820050e-03
1.344649820050e-03
1.344649820050e-03
1.344649820050e-03
1.344649820050e-03
1.344649820050e-03
1.344649820050e-03
1.344649820050e-03
1.344649820050e-03
1.344649820050e-03
1.344649820050e-03
1.344649820050e-03
1.344649820050e-03
1.344649820050e-03
1.344649820050e-03
1.344649820050e-03
1.344649820050e-03
1.344649820050e-03
1.344649820050e-03
1.344649820050e-03
1.344649820050e-03
1.344649820050e-03
1.344649820050e-03
1.344649820050e-03
1.344649820050e-03
1.344649820050e-03
1.344649820050e-03
1.344649820050e-03
1.344649820050e-03
1.344649820050e-03
1.344649820050e-03
5.088002271294e-04
5.088002271294e-04
5.088002271294e-04
5.088002271293e-04
5.088002271293e-04
5.088002271293e-04
5.088002271293e-04
5.088002271293e-04
5.088002271293e-04
5.088002271293e-04
5.088002271293e-04
2.834087605499e-03
2.834087605499e-03
2.834087605499e-03