# vtk DataFile Version 2.0
test
ASCII
DATASET UNSTRUCTURED_GRID
POINTS 9129 float
5.000000e-01 -9.000000e+01 2.842171e-14
7.000000e-01 -9.000000e+01 2.842171e-14
5.000000e-01 -8.980000e+01 2.842171e-14
7.354886e-01 -8.976215e+01 2.842171e-14
9.000000e-01 -9.000000e+01 2.842171e-14
9.811036e-01 -8.978008e+01 2.842171e-14
5.000000e-01 -8.960000e+01 2.842171e-14
6.978469e-01 -8.952363e+01 2.842171e-14
5.000000e-01 -8.940000e+01 2.842171e-14
6.923200e-01 -8.931530e+01 2.842171e-14
5.000000e-01 -8.920000e+01 2.842171e-14
6.885288e-01 -8.910843e+01 2.842171e-14
5.000000e-01 -8.900000e+01 2.842171e-14
6.835408e-01 -8.890409e+01 2.842171e-14
5.000000e-01 -8.880000e+01 2.842171e-14
6.795104e-01 -8.870270e+01 2.842171e-14
5.000000e-01 -8.860000e+01 2.842171e-14
6.782638e-01 -8.850215e+01 2.842171e-14
5.000000e-01 -8.840000e+01 2.842171e-14
6.776728e-01 -8.830066e+01 2.842171e-14
5.000000e-01 -8.820000e+01 2.842171e-14
6.756409e-01 -8.809956e+01 2.842171e-14
5.000000e-01 -8.800000e+01 2.842171e-14
6.740446e-01 -8.790022e+01 2.842171e-14
5.000000e-01 -8.780000e+01 2.842171e-14
6.747757e-01 -8.770109e+01 2.842171e-14
5.000000e-01 -8.760000e+01 2.842171e-14
6.760324e-01 -8.750069e+01 2.842171e-14
5.000000e-01 -8.740000e+01 2.842171e-14
6.762739e-01 -8.729988e+01 2.842171e-14
5.000000e-01 -8.720000e+01 2.842171e-14
6.761532e-01 -8.709951e+01 2.842171e-14
5.000000e-01 -8.700000e+01 2.842171e-14
6.760904e-01 -8.689943e+01 2.842171e-14
5.000000e-01 -8.680000e+01 2.842171e-14
6.760769e-01 -8.669941e+01 2.842171e-14
5.000000e-01 -8.660000e+01 2.842171e-14
6.760820e-01 -8.649941e+01 2.842171e-14
5.000000e-01 -8.640000e+01 2.842171e-14
6.760950e-01 -8.629941e+01 2.842171e-14
5.000000e-01 -8.620000e+01 2.842171e-14
6.761115e-01 -8.609941e+01 2.842171e-14
5.000000e-01 -8.600000e+01 2.842171e-14
6.761297e-01 -8.589941e+01 2.842171e-14
5.000000e-01 -8.580000e+01 2.842171e-14
6.761488e-01 -8.569941e+01 2.842171e-14
5.000000e-01 -8.560000e+01 2.842171e-14
6.761684e-01 -8.549941e+01 2.842171e-14
5.000000e-01 -8.540000e+01 2.842171e-14
6.761882e-01 -8.529941e+01 2.842171e-14
5.000000e-01 -8.520000e+01 2.842171e-14
6.762082e-01 -8.509941e+01 2.842171e-14
5.000000e-01 -8.500000e+01 2.842171e-14
6.762282e-01 -8.489941e+01 2.842171e-14
5.000000e-01 -8.480000e+01 2.842171e-14
6.762483e-01 -8.469941e+01 2.842171e-14
5.000000e-01 -8.460000e+01 2.842171e-14
6.762684e-01 -8.449941e+01 2.842171e-14
5.000000e-01 -8.440000e+01 2.842171e-14
6.762884e-01 -8.429941e+01 2.842171e-14
5.000000e-01 -8.420000e+01 2.842171e-14
6.763086e-01 -8.409941e+01 2.842171e-14
5.000000e-01 -8.400000e+01 2.842171e-14
6.763287e-01 -8.389941e+01 2.842171e-14
5.000000e-01 -8.380000e+01 2.842171e-14
6.763488e-01 -8.369941e+01 2.842171e-14
5.000000e-01 -8.360000e+01 2.842171e-14
6.763689e-01 -8.349941e+01 2.842171e-14
5.000000e-01 -8.340000e+01 2.842171e-14
6.763890e-01 -8.329941e+01 2.842171e-14
5.000000e-01 -8.320000e+01 2.842171e-14
6.764091e-01 -8.309941e+01 2.842171e-14
5.000000e-01 -8.300000e+01 2.842171e-14
6.764292e-01 -8.289941e+01 2.842171e-14
5.000000e-01 -8.280000e+01 2.842171e-14
6.764493e-01 -8.269941e+01 2.842171e-14
5.000000e-01 -8.260000e+01 2.842171e-14
6.764694e-01 -8.249941e+01 2.842171e-14
5.000000e-01 -8.240000e+01 2.842171e-14
6.764895e-01 -8.229941e+01 2.842171e-14
5.000000e-01 -8.220000e+01 2.842171e-14
6.765094e-01 -8.209941e+01 2.842171e-14
5.000000e-01 -8.200000e+01 2.842171e-14
6.765293e-01 -8.189941e+01 2.842171e-14
5.000000e-01 -8.180000e+01 2.842171e-14
6.765489e-01 -8.169941e+01 2.842171e-14
5.000000e-01 -8.160000e+01 2.842171e-14
6.765685e-01 -8.149941e+01 2.842171e-14
5.000000e-01 -8.140000e+01 2.842171e-14
6.765881e-01 -8.129941e+01 2.842171e-14
5.000000e-01 -8.120000e+01 2.842171e-14
6.766080e-01 -8.109941e+01 2.842171e-14
5.000000e-01 -8.100000e+01 2.842171e-14
6.766280e-01 -8.089941e+01 2.842171e-14
5.000000e-01 -8.080000e+01 2.842171e-14
6.766484e-01 -8.069941e+01 2.842171e-14
5.000000e-01 -8.060000e+01 2.842171e-14
6.766686e-01 -8.049941e+01 2.842171e-14
5.000000e-01 -8.040000e+01 2.842171e-14
6.766884e-01 -8.029940e+01 2.842171e-14
5.000000e-01 -8.020000e+01 2.842171e-14
6.767059e-01 -8.009939e+01 2.842171e-14
5.000000e-01 -8.000000e+01 2.842171e-14
6.767166e-01 -7.989938e+01 2.842171e-14
5.000000e-01 -7.980000e+01 2.842171e-14
6.767078e-01 -7.969937e+01 2.842171e-14
5.000000e-01 -7.960000e+01 2.842171e-14
6.766750e-01 -7.949938e+01 2.842171e-14
5.000000e-01 -7.940000e+01 2.842171e-14
6.766571e-01 -7.929942e+01 2.842171e-14
5.000000e-01 -7.920000e+01 2.842171e-14
6.767080e-01 -7.909947e+01 2.842171e-14
5.000000e-01 -7.900000e+01 2.842171e-14
6.768297e-01 -7.889950e+01 2.842171e-14
5.000000e-01 -7.880000e+01 2.842171e-14
6.769701e-01 -7.869950e+01 2.842171e-14
5.000000e-01 -7.860000e+01 2.842171e-14
6.770877e-01 -7.849948e+01 2.842171e-14
5.000000e-01 -7.840000e+01 2.842171e-14
6.771826e-01 -7.829946e+01 2.842171e-14
5.000000e-01 -7.820000e+01 2.842171e-14
6.772668e-01 -7.809944e+01 2.842171e-14
5.000000e-01 -7.800000e+01 2.842171e-14
6.773481e-01 -7.789944e+01 2.842171e-14
5.000000e-01 -7.780000e+01 2.842171e-14
6.774304e-01 -7.769943e+01 2.842171e-14
5.000000e-01 -7.760000e+01 2.842171e-14
6.775138e-01 -7.749943e+01 2.842171e-14
5.000000e-01 -7.740000e+01 2.842171e-14
6.775976e-01 -7.729943e+01 2.842171e-14
5.000000e-01 -7.720000e+01 2.842171e-14
6.776819e-01 -7.709943e+01 2.842171e-14
5.000000e-01 -7.700000e+01 2.842171e-14
6.777664e-01 -7.689943e+01 2.842171e-14
5.000000e-01 -7.680000e+01 2.842171e-14
6.778512e-01 -7.669943e+01 2.842171e-14
5.000000e-01 -7.660000e+01 2.842171e-14
6.779362e-01 -7.649943e+01 2.842171e-14
5.000000e-01 -7.640000e+01 2.842171e-14
6.780211e-01 -7.629943e+01 2.842171e-14
5.000000e-01 -7.620000e+01 2.842171e-14
6.781052e-01 -7.609941e+01 2.842171e-14
5.000000e-01 -7.600000e+01 2.842171e-14
6.781844e-01 -7.589937e+01 2.842171e-14
5.000000e-01 -7.580000e+01 2.842171e-14
6.782432e-01 -7.569934e+01 2.842171e-14
5.000000e-01 -7.560000e+01 2.842171e-14
6.782711e-01 -7.549932e+01 2.842171e-14
5.000000e-01 -7.540000e+01 2.842171e-14
6.782987e-01 -7.529933e+01 2.842171e-14
5.000000e-01 -7.520000e+01 2.842171e-14
6.783707e-01 -7.509933e+01 2.842171e-14
5.000000e-01 -7.500000e+01 2.842171e-14
6.784731e-01 -7.489932e+01 2.842171e-14
5.000000e-01 -7.480000e+01 2.842171e-14
6.785462e-01 -7.469932e+01 2.842171e-14
5.000000e-01 -7.460000e+01 2.842171e-14
6.785752e-01 -7.449935e+01 2.842171e-14
5.000000e-01 -7.440000e+01 2.842171e-14
6.785997e-01 -7.429938e+01 2.842171e-14
5.000000e-01 -7.420000e+01 2.842171e-14
6.786012e-01 -7.409929e+01 2.842171e-14
5.000000e-01 -7.400000e+01 2.842171e-14
6.782697e-01 -7.389892e+01 2.842171e-14
5.000000e-01 -7.380000e+01 2.842171e-14
6.769718e-01 -7.369885e+01 2.842171e-14
5.000000e-01 -7.360000e+01 2.842171e-14
6.760325e-01 -7.349962e+01 2.842171e-14
5.000000e-01 -7.340000e+01 2.842171e-14
6.769673e-01 -7.329964e+01 2.842171e-14
5.000000e-01 -7.320000e+01 2.842171e-14
6.773389e-01 -7.309828e+01 2.842171e-14
5.000000e-01 -7.300000e+01 2.842171e-14
6.765623e-01 -7.289730e+01 2.842171e-14
5.000000e-01 -7.280000e+01 2.842171e-14
6.762623e-01 -7.269710e+01 2.842171e-14
5.000000e-01 -7.260000e+01 2.842171e-14
6.762283e-01 -7.249707e+01 2.842171e-14
5.000000e-01 -7.240000e+01 2.842171e-14
6.762684e-01 -7.229706e+01 2.842171e-14
5.000000e-01 -7.220000e+01 2.842171e-14
6.763348e-01 -7.209706e+01 2.842171e-14
5.000000e-01 -7.200000e+01 2.842171e-14
6.764078e-01 -7.189706e+01 2.842171e-14
5.000000e-01 -7.180000e+01 2.842171e-14
6.764836e-01 -7.169706e+01 2.842171e-14
5.000000e-01 -7.160000e+01 2.842171e-14
6.765601e-01 -7.149706e+01 2.842171e-14
5.000000e-01 -7.140000e+01 2.842171e-14
6.766369e-01 -7.129706e+01 2.842171e-14
5.000000e-01 -7.120000e+01 2.842171e-14
6.767137e-01 -7.109706e+01 2.842171e-14
5.000000e-01 -7.100000e+01 2.842171e-14
6.767906e-01 -7.089706e+01 2.842171e-14
5.000000e-01 -7.080000e+01 2.842171e-14
6.768676e-01 -7.069706e+01 2.842171e-14
5.000000e-01 -7.060000e+01 2.842171e-14
6.769447e-01 -7.049706e+01 2.842171e-14
5.000000e-01 -7.040000e+01 2.842171e-14
6.770216e-01 -7.029706e+01 2.842171e-14
5.000000e-01 -7.020000e+01 2.842171e-14
6.770986e-01 -7.009706e+01 2.842171e-14
8.475619e-01 -8.799663e+01 2.842171e-14
5.000000e-01 -7.000000e+01 2.842171e-14
8.468964e-01 -8.780374e+01 2.842171e-14
8.577591e-01 -8.819650e+01 2.842171e-14
6.771756e-01 -6.989706e+01 2.842171e-14
8.559286e-01 -8.760501e+01 2.842171e-14
5.000000e-01 -6.980000e+01 2.842171e-14
8.603507e-01 -8.840364e+01 2.842171e-14
6.772527e-01 -6.969706e+01 2.842171e-14
8.590434e-01 -8.740052e+01 2.842171e-14
5.000000e-01 -6.960000e+01 2.842171e-14
8.585129e-01 -8.719783e+01 2.842171e-14
6.773297e-01 -6.949706e+01 2.842171e-14
5.000000e-01 -6.940000e+01 2.842171e-14
8.581177e-01 -8.699716e+01 2.842171e-14
6.774066e-01 -6.929706e+01 2.842171e-14
8.548659e-01 -8.860506e+01 2.842171e-14
5.000000e-01 -6.920000e+01 2.842171e-14
8.580176e-01 -8.679702e+01 2.842171e-14
6.774837e-01 -6.909706e+01 2.842171e-14
5.000000e-01 -6.900000e+01 2.842171e-14
8.580255e-01 -8.659699e+01 2.842171e-14
6.775607e-01 -6.889706e+01 2.842171e-14
5.000000e-01 -6.880000e+01 2.842171e-14
8.580783e-01 -8.639698e+01 2.842171e-14
6.776377e-01 -6.869706e+01 2.842171e-14
5.000000e-01 -6.860000e+01 2.842171e-14
8.581464e-01 -8.619698e+01 2.842171e-14
6.777146e-01 -6.849706e+01 2.842171e-14
8.588120e-01 -8.880056e+01 2.842171e-14
5.000000e-01 -6.840000e+01 2.842171e-14
8.582218e-01 -8.599698e+01 2.842171e-14
6.777917e-01 -6.829706e+01 2.842171e-14
5.000000e-01 -6.820000e+01 2.842171e-14
8.583001e-01 -8.579698e+01 2.842171e-14
6.778688e-01 -6.809706e+01 2.842171e-14
5.000000e-01 -6.800000e+01 2.842171e-14
8.583796e-01 -8.559698e+01 2.842171e-14
6.779457e-01 -6.789706e+01 2.842171e-14
5.000000e-01 -6.780000e+01 2.842171e-14
8.584595e-01 -8.539698e+01 2.842171e-14
6.780227e-01 -6.769706e+01 2.842171e-14
5.000000e-01 -6.760000e+01 2.842171e-14
8.585397e-01 -8.519698e+01 2.842171e-14
6.780997e-01 -6.749706e+01 2.842171e-14
[...]
CELL_DATA 17013
SCALARS temperature float
LOOKUP_TABLE default
-1.052469e+30
4.402060e+30
-1.955888e+31
9.025767e+31
-1.220026e+31
5.206390e+31
-1.595154e+32
7.052527e+32
-6.532951e+32
2.441414e+33
-1.863850e+33
6.544071e+33
-5.612714e+33
2.005409e+34
-9.735811e+33
2.576270e+34
-4.703191e+33
-3.364929e+33
3.591311e+34
-1.630425e+35
2.520057e+35
-9.981781e+35
8.759374e+35
-3.011911e+36
2.330494e+36
-7.695313e+36
3.427681e+36
-8.185023e+36
-9.586555e+37
4.525465e+38
-1.176101e+39
5.000154e+39
-6.375428e+39
2.453737e+40
-2.365667e+40
8.502075e+40
2.860894e+40
-2.181611e+41
9.107453e+41
-4.003903e+42
4.242552e+42
-1.564779e+43
1.167677e+43
-3.841645e+43
9.538028e+42
-5.597772e+42
-1.224120e+44
5.734631e+44
-5.961577e+44
2.188784e+45
-1.452272e+45
4.536089e+45
-2.675660e+45
7.851844e+45
-5.625258e+45
1.820435e+46
-1.345180e+46
4.411289e+46
-2.931348e+46
9.167103e+46
-2.767967e+46
3.626311e+46
2.274210e+47
-1.092091e+48
1.304487e+48
-4.957021e+48
4.098974e+48
-1.404317e+49
1.848199e+48
5.544769e+48
-7.014596e+49
3.201256e+50
-3.297517e+50
1.209229e+51
-8.148808e+50
2.567958e+51
-1.491449e+51
4.343781e+51
-2.669946e+51
8.031889e+51
-5.168034e+51
1.592699e+52
-1.009647e+52
3.088234e+52
-1.201447e+52
2.475360e+52
4.324151e+52
-2.258077e+53
2.325181e+53
-8.532782e+53
4.538721e+53
-1.250818e+54
1.545835e+54
-5.925741e+54
1.364019e+55
-5.743471e+55
6.928486e+55
-2.642774e+56
3.042544e+56
-1.148571e+57
1.387012e+57
-5.293160e+57
6.872877e+57
-2.663071e+58
2.813286e+58
-1.040031e+59
4.937180e+58
-1.248617e+59
-6.232045e+59
3.021704e+60
-7.957606e+60
3.394628e+61
-3.059588e+61
1.081372e+62
-6.691480e+61
2.026141e+62
-1.156199e+62
3.345187e+62
-2.333763e+62
7.505348e+62
-5.497129e+62
1.806358e+63
-1.249963e+63
4.008965e+63
-1.522284e+63
3.065236e+63
7.738148e+63
-3.917306e+64
4.266059e+64
-1.596309e+65
1.024640e+65
-3.176452e+65
1.813676e+65
-5.272465e+65
3.841945e+65
-1.263962e+66
2.481267e+65
1.121078e+65
-6.449518e+66
3.003019e+67
-3.262637e+67
1.223489e+68
-8.739860e+67
2.857393e+68
-1.744848e+68
5.288964e+68
-2.851172e+68
8.019665e+68
-3.751589e+68
9.487066e+68
-4.221652e+68
1.021624e+69
-4.921053e+68
1.276512e+69
-5.879826e+68
1.469546e+69
-5.292038e+68
1.000182e+69
-2.723976e+68
2.698866e+68
-7.160669e+67
6.399048e+67
5.573945e+67
-3.253629e+68
6.695859e+68
-2.786244e+69
3.520495e+69
-1.352649e+70
1.319246e+70
-4.794851e+70
5.498546e+70
-2.095434e+71
-1.061900e+71
7.132654e+71
-2.937554e+72
1.305493e+73
-1.185717e+73
4.221322e+73
-3.208037e+73
1.071344e+74
-2.566488e+73
1.021131e+73
3.875016e+74
-1.830517e+75
1.570507e+75
-5.494020e+75
3.185119e+75
-9.312814e+75
5.808594e+75
-1.771919e+76
2.088909e+76
-7.998938e+76
6.379487e+76
-2.177410e+77
1.576588e+77
-5.176908e+77
1.513241e+77
-1.793291e+77
-1.562147e+78
7.539554e+78
2.482757e+36
-6.624275e+78
7.625971e+36
3.285355e+35
2.343694e+79
2.310179e+37
-1.426097e+79
-1.931775e+34
4.305933e+79
1.276638e+38
-2.305769e+79
-4.078691e+38
6.433630e+79
-3.834344e+79
-1.122660e+40
1.145250e+80
-8.475411e+34
-6.770854e+79
-6.235247e+40
2.013879e+80
-1.237569e+80
-3.299568e+41
3.764473e+80
-1.330500e+80
-1.486472e+41
2.402832e+80
7.369455e+80
9.914286e+42
-3.725498e+81
-6.459701e+34
3.309933e+81
4.318428e+43
-1.179206e+82
6.877597e+81
1.247750e+44
-2.034270e+82
1.194262e+82
1.395907e+44
-3.547908e+82
3.751729e+82
-1.443394e+45
-1.407691e+83
1.098513e+83
-6.239781e+45
-3.743686e+83
2.745172e+83
-1.306234e+46
-9.126933e+83
3.080091e+83
-2.078254e+34
-2.141260e+46
-5.174470e+83
-2.509211e+84
-4.984406e+46
1.240409e+85
-1.101606e+85
-1.244748e+47
3.936859e+85
-2.386993e+85
-2.922399e+47
7.248405e+85
-3.853534e+85
-3.489048e+47
1.078851e+86
-6.310229e+85
2.589323e+48
1.878794e+86
-1.091965e+86
1.338785e+49
3.240558e+86
-1.976870e+86
4.777643e+49
6.034959e+86
-2.334093e+86
5.039563e+49
4.855738e+86
-8.724750e+33
1.011824e+87
-8.123866e+50
-5.298408e+87
4.787200e+87
-3.455196e+51
-1.725822e+88
1.007044e+88
-7.472862e+51
-3.002914e+88
1.694508e+88
-1.237427e+52
-4.953500e+88
4.810215e+88
-2.274122e+52
-1.774316e+89
1.352926e+89
-4.540965e+52
-4.600255e+89
3.385483e+89
-9.596985e+52
-1.135133e+90
4.251795e+89
-1.284957e+53
-8.526546e+89
-2.846466e+90
5.821061e+53
1.440964e+91
-1.291782e+91
2.575671e+54
-2.564241e+33
4.660317e+91
-2.810789e+91
2.731828e+54
8.575328e+91
-4.521872e+91
6.928136e+54
1.269292e+92
-7.290179e+91
1.349234e+56
2.163918e+92
-1.237882e+92
6.297323e+56
3.667257e+92
-2.229351e+92
2.666750e+57
6.843996e+92
-2.806917e+92
-1.437379e+32
1.180245e+58
6.330215e+92
1.019016e+93
6.628074e+58
-5.507111e+93
4.602473e+93
3.209250e+59
-1.627282e+94
4.937682e+93
1.086740e+60
-6.802280e+93
1.260802e+94
-2.643560e+60
-5.313626e+94
2.441243e+95
-9.083546e+61
-1.110039e+96
1.004975e+96
-3.174115e+62
-3.654169e+96
2.928998e+96
-5.972103e+62
-1.022329e+97
4.064591e+96
-9.381487e+62
-8.892481e+96
-2.703099e+97
-2.108990e+63
1.382649e+98
-1.244271e+98
-5.174575e+63
4.522891e+98
-2.732487e+98
-1.280446e+64
8.407294e+98
-4.371703e+98
-1.868121e+64
1.225244e+99
-6.092418e+98
1.006893e+65
1.653248e+99
-7.829653e+98
4.754363e+65
2.044919e+99
-9.346238e+98
9.532058e+65
2.368882e+99
-1.086159e+99
1.484318e+66
2.762341e+99
-1.818855e+99
4.338574e+66
5.867359e+99
-3.768964e+99
6.194344e+66
1.201611e+100
-6.586789e+99
-7.766344e+67
1.919688e+100
-9.691890e+99
-3.591136e+68
2.670103e+100
-1.516393e+100
-8.597192e+68
4.522792e+100
-2.593607e+100
-1.618929e+69
7.784781e+100
-4.739047e+100
-2.492683e+69
1.472416e+101
-6.476400e+100
-2.932933e+69
1.592949e+101
2.057871e+101
-3.105742e+69
-1.151483e+102
1.482839e+102
-3.955847e+69
-5.934512e+102
8.259946e+102
-4.691509e+69
-3.356247e+103
1.229322e+103
-3.148196e+69
-2.453429e+103
-1.714942e+104
-7.136427e+68
8.492690e+104
-7.953041e+104
-2.396251e+68
2.949177e+105
-2.331897e+105
5.107880e+68
8.178468e+105
-3.640327e+105
6.180474e+69
9.096570e+105
1.757200e+106
3.397305e+70
-9.388875e+106
8.513491e+106
1.168070e+71
-3.131261e+107
1.790415e+107
8.661994e+71
-5.398133e+107
2.846509e+107
4.782224e+71
-8.154593e+107
7.057118e+107
-3.415903e+73
-2.560398e+108
1.870719e+108
-1.145640e+74
-6.379786e+108
4.689280e+108
-3.477611e+74
-1.603813e+109
7.357222e+108
-4.212599e+74
-1.897418e+109
-3.389651e+109
4.928975e+75
1.829615e+110
-2.514961e+110
1.601620e+76
1.024943e+111
-1.654219e+111
2.622374e+76
6.927467e+111
-2.807133e+111
3.983157e+76
6.424752e+111
3.582478e+112
2.179440e+77
-1.795575e+113
1.697435e+113
6.041547e+77
-6.350820e+113
5.238013e+113
1.669837e+78
-1.877226e+114
8.631829e+113
2.194099e+78
-2.240653e+114
-4.341992e+114
-2.045771e+79
-1.050346e+36
-6.694735e+36
2.329023e+115
-1.710154e+37
-4.076053e+34
-2.111146e+115
-6.861483e+79
-6.250387e+37
7.812212e+115
-4.480552e+115
-4.237075e+38
1.196807e+35
-1.274567e+80
1.363639e+116
-7.082558e+115
1.568777e+39
-1.848058e+80
2.024202e+116
-1.585091e+116
3.670164e+40
-3.329052e+80
5.589062e+116
1.680584e+35
1.780490e+41
-3.919775e+116
-5.811115e+80
1.322697e+117
1.001364e+42
-9.607417e+116
-1.195986e+81
3.291837e+117
-2.466822e+41
-1.584854e+117
-1.587320e+81
4.291422e+117
-3.395288e+43
6.278830e+117
1.024856e+82
-3.483076e+118
-1.160123e+44
4.901723e+118
3.533503e+82
-2.017310e+119
5.325225e+34
-3.235498e+44
3.452467e+119
5.975803e+82
-1.466177e+120
-1.994748e+44
6.558678e+119
8.654954e+82
-1.672891e+120
5.202495e+45
-7.259141e+120
3.962045e+83
3.692876e+121
1.656858e+46
-3.503323e+121
1.063964e+84
1.320062e+122
2.893742e+46
-1.107055e+122
2.979880e+84
4.015590e+122
4.525575e+46
-1.922077e+122
4.422532e+84
5.202641e+122
1.281252e+47
9.156916e+122
-3.454719e+85
-4.981368e+123
2.573830e+34
3.059859e+47
4.555266e+123
-1.186077e+86
-1.700562e+124
7.248814e+47
1.007890e+124
-2.208153e+86
-3.148925e+124
5.674916e+47
1.608075e+124
-3.198511e+86
-4.578479e+124
-9.521219e+48
2.165275e+124
-5.628888e+86
-5.820115e+124
-3.715583e+49
2.562966e+124
-9.620376e+86
-6.480837e+124
-1.328829e+50
2.504105e+124
-1.946503e+87
-5.519012e+124
-6.366419e+49
2.323429e+124
-2.791004e+87
-5.632169e+124
2.896873e+51
1.330483e+125
1.493654e+88
-5.896779e+125
9.228478e+51
4.812982e+125
5.316126e+88
-1.737116e+126
9.474817e+33
1.698319e+52
9.968933e+125
9.143917e+88
-3.069310e+126
2.631374e+52
1.558866e+126
1.288159e+89
-4.439002e+126
5.336212e+52
2.488162e+126
5.158360e+89
-7.561659e+126
1.058915e+53
4.255447e+126
1.341831e+90
-1.296971e+127
2.336162e+53
8.134008e+126
3.758927e+90
-2.632758e+127
2.346848e+53
1.258597e+127
6.102741e+90
-3.432191e+127
-2.279930e+54
-3.586885e+127
-4.119234e+91
2.102605e+128
-6.833294e+54
-1.972001e+128
-1.444592e+92
7.461971e+128
-2.406228e+54
-4.319550e+128
-2.687463e+92
1.341536e+129
-1.878694e+55
-6.921108e+128
2.383541e+32
-3.880634e+92
2.000509e+129
-4.496194e+56
-1.438965e+129
-6.676530e+92
4.972116e+129
-1.733076e+57
-3.415029e+129
-1.118703e+93
1.157520e+130
-7.491933e+57
-9.858037e+129
-2.248327e+93
3.628915e+130
-3.316205e+58
-3.474405e+130
3.576107e+32
-3.408733e+93
1.325982e+131
-1.981657e+59
-1.981391e+131
1.640006e+94
8.324005e+131
-9.417533e+59
-1.089412e+132
5.637604e+94
4.462282e+132
-3.114717e+60
-5.008313e+132
8.757204e+93
1.981509e+133
1.052163e+61
-6.418334e+94
3.200930e+96
1.075826e+97
3.458781e+97
6.232508e+97
-4.058737e+98
-1.439447e+99
-2.713179e+99
-3.949443e+99
-5.359970e+99
-6.646450e+99
-7.677734e+99
-8.356264e+99
-1.841216e+100
-3.898497e+100
-6.269414e+100
-8.488481e+100
-1.450923e+101
-2.472469e+101
-4.980666e+101
-8.343701e+101
2.991129e+102
1.428853e+103
1.197951e+104
2.839633e+104
-2.536255e+105
-9.087939e+105
-2.829239e+106
-5.478137e+106
2.869253e+107
1.047972e+108
1.801096e+108
2.397180e+108
8.137574e+108
2.015408e+109
5.579287e+109
1.125328e+110
-4.694953e+110
-2.287341e+111
-2.508121e+112
-6.571051e+112
5.491907e+113
1.985348e+114
6.636508e+114
1.381598e+115
1.131236e+37
1.168935e+36
-7.307764e+115
3.362331e+37
-1.544770e+35
1.091384e+38
-2.680382e+116
2.173387e+39
-4.681729e+116
-3.811998e+35
6.327057e+39
-6.299617e+116
-7.493727e+40
-1.836037e+117
-3.225573e+41
-4.295204e+117
-3.770471e+42
-4.264164e+35
-1.165057e+118
-1.000939e+43
-2.445139e+118
8.625926e+43
9.083263e+118
3.107128e+44
4.420507e+119
1.099649e+45
5.371320e+120
2.347477e+45
-1.359743e+35
1.509710e+121
-1.380978e+46
-1.158967e+122
-4.997075e+46
-4.215513e+122
-8.658237e+46
-1.447155e+123
-1.158631e+47
-3.173216e+123
-3.594972e+47
1.600356e+124
-8.594961e+47
5.946263e+124
-2.434254e+48
1.114148e+125
-9.112153e+34
-5.046349e+48
1.626425e+125
2.338233e+49
2.078910e+125
9.283709e+49
2.342024e+125
4.706488e+50
1.938656e+125
1.154041e+51
7.318106e+124
-7.840101e+51
1.958254e+126
-2.809857e+52
6.168404e+126
-5.211246e+52
1.098541e+127
-7.585771e+52
1.550515e+127
-3.310640e+34
-1.574987e+53
2.662260e+127
-3.058774e+53
4.476807e+127
-7.762488e+53
9.619540e+127
-1.564240e+54
1.847365e+128
6.467479e+54
-6.901398e+128
2.422742e+55
-2.688307e+129
-4.061213e+53
-4.850935e+129
-8.028973e+55
2.156457e+33
-6.709989e+129
1.119421e+57
-1.721567e+130
3.920633e+57
-3.780378e+130
1.671957e+58
-1.150952e+131
5.772077e+58
-3.377529e+131
4.344786e+59
-2.315350e+132
2.534303e+60
-1.320816e+133
1.538727e+61
-5.424461e+19
-4.308496e+19
1.618927e+20
-3.606322e+19
-8.763988e+20
2.629825e+21
-1.663683e+22
7.352707e+21
-1.953791e+22
4.578044e+21
-2.254995e+21
-6.073191e+20
4.045062e+21
-3.506298e+21
1.122334e+22
1.818032e+22
-9.442003e+22
2.509571e+23
-1.054018e+24
9.706817e+23
-3.401817e+24
2.100972e+24
-6.266921e+24
3.941077e+24
-1.190967e+25
1.212195e+25
-4.411246e+25
3.853616e+25
-1.340798e+26
9.146987e+25
-2.890335e+26
3.663984e+25
1.200078e+26
-1.306451e+27
5.931742e+27
-7.841406e+27
3.038099e+28
-2.899562e+28
1.039033e+29
2.833829e+28
-2.357669e+29
1.030847e+30
-4.543140e+30
4.745487e+30
-1.744133e+31
1.239982e+31
-3.998981e+31
6.736435e+30
8.884156e+30
-1.729378e+32
7.930502e+32
-1.171612e+33
4.637454e+33
-4.930269e+33
1.821153e+34
5.613605e+33
-4.435804e+34
1.968659e+35
-8.689113e+35
9.240846e+35
-3.414475e+36
2.566094e+36
-8.475150e+36
2.556266e+36
-3.339460e+36
-2.250335e+37
1.078240e+38
-1.107157e+38
4.055420e+38
-2.512627e+38
7.586619e+38
-5.957283e+38
2.003004e+39
-2.961577e+39
1.173764e+40
-1.071728e+40
3.796424e+40
-2.495014e+40
7.769016e+40
-4.464792e+40
1.292316e+41
-7.833408e+40
2.338830e+41
-1.484589e+41
4.544310e+41
-2.797840e+41
8.428795e+41
-2.107078e+41
5.064413e+22
1.318586e+41
2.862181e+42
-1.342937e+43
2.239508e+43
-9.055389e+43
1.120489e+44
-4.296394e+44
9.106591e+42
3.897473e+44
-3.306076e+45
1.497426e+46
-1.609840e+46
5.976801e+46
-4.982635e+46
1.715069e+47
-1.908943e+47
7.149721e+47
-1.638404e+48
6.898792e+48
-1.789781e+49
4.834804e+22
7.628663e+49
-1.247281e+50
5.033274e+50
-2.110712e+49
-4.080641e+50
4.012309e+51
-1.825855e+52
6.564947e+21
1.858422e+52
-6.813180e+52
4.428737e+52
-1.376663e+53
7.428710e+52
-2.075324e+53
1.043784e+53
-2.775817e+53
1.351633e+53
-3.507629e+53
1.674123e+53
-4.277250e+53
2.157017e+53
-5.757968e+53
4.123446e+53
-1.344638e+54
9.957280e+53
-3.294657e+54
2.003016e+54
-6.037532e+54
3.217435e+54
-8.953485e+54
4.563550e+54
-1.231449e+55
4.900960e+54
-1.051809e+55
-8.108377e+54
4.848838e+55
-7.647146e+21
-6.874445e+55
2.727755e+56
-2.475382e+56
8.839065e+56
-1.168300e+56
-3.427891e+56
5.370419e+57
-2.479748e+58
2.538507e+58
-9.389998e+58
5.779373e+58
-1.761764e+59
9.048906e+58
-2.466481e+59
1.423277e+59
-4.187976e+59
2.591670e+59
-7.934236e+59
4.357081e+59
-1.244659e+60
6.156632e+59
-5.206154e+22
-1.635584e+60
8.045346e+59
-2.130756e+60
4.320739e+59
1.179043e+59
-2.328266e+60
1.087105e+61
-1.081006e+61
3.984309e+61
-2.396919e+61
7.170289e+61
-3.562332e+61
9.338691e+61
6.064375e+22
-4.998240e+61
1.384588e+62
-1.297419e+62
4.665346e+62
-3.574670e+62
1.198366e+63
-8.561629e+62
2.787688e+63
-5.240895e+62
2.587534e+24
-4.074116e+62
1.204459e+64
-5.618616e+64
6.107870e+64
-2.292927e+65
9.463857e+24
2.381299e+65
-8.837565e+65
1.596873e+64
8.346648e+65
1.727482e+25
-6.509050e+66
2.976818e+67
-2.731526e+67
9.792330e+67
2.830910e+25
-7.507476e+67
2.526662e+68
1.145719e+26
-7.198933e+67
7.895216e+67
8.266700e+68
3.743256e+26
-3.975801e+69
3.489634e+69
9.677945e+26
-1.235247e+70
7.533851e+69
8.722551e+26
-2.279929e+70
1.216510e+70
-1.306311e+28
-3.389514e+70
1.943840e+70
-7.748758e+28
-5.679857e+70
3.229242e+70
-3.963125e+29
-9.390086e+70
5.549984e+70
-2.070909e+29
-1.652907e+71
6.166591e+70
1.132842e+31
-1.210014e+71
-2.621679e+71
4.879334e+31
1.362654e+72
-1.181118e+72
1.331033e+32
4.177087e+72
-2.041924e+72
1.403003e+32
5.349725e+72
-4.540059e+72
-1.629115e+33
1.595417e+73
-3.602822e+73
-1.138080e+34
1.539323e+74
-1.341481e+74
-7.054706e+34
4.760569e+74
-3.649002e+74
-4.210116e+34
1.236449e+75
-4.166495e+74
2.159255e+36
6.992987e+74
3.566653e+75
9.449846e+36
-1.760439e+76
1.554310e+76
2.718319e+37
-5.548615e+76
3.291517e+76
3.376773e+37
-9.881239e+76
5.440966e+76
-2.747219e+38
-1.561196e+77
1.250781e+77
-1.179978e+39
-4.321742e+77
3.072496e+77
-2.030523e+39
-1.011974e+78
7.077456e+77
-3.975824e+39
-2.315150e+78
8.209847e+77
-3.083904e+40
-1.512305e+78
-6.236952e+78
-1.088184e+41
3.115364e+79
-3.793616e+79
-2.263858e+41
1.480207e+80
-1.859995e+80
2.854787e+21
-3.692067e+41
7.308690e+80
-1.542817e+80
-6.640896e+41
-9.171628e+22
-1.928857e+79
4.537993e+81
-1.304073e+42
-2.154106e+82
9.475460e+19
2.013336e+82
-2.740084e+42
-7.352034e+82
5.859356e+82
-3.303836e+42
-2.029047e+83
7.528784e+82
2.530669e+43
-1.492440e+83
-5.635423e+83
2.085754e+44
-2.560506e+22
2.834288e+84
-2.531026e+84
1.534642e+45
9.127101e+84
-5.487074e+84
1.966700e+45
1.672586e+85
-8.829468e+84
-3.752908e+46
2.482894e+85
-1.466622e+85
-1.620489e+47
4.430106e+85
-2.604018e+85
-4.109133e+47
7.847143e+85
-4.896271e+85
-8.427258e+47
1.525879e+86
-6.236577e+85
-6.148835e+48
1.402966e+86
2.521299e+86
-1.455718e+50
-1.346512e+87
1.238289e+87
-1.801672e+51
-4.520800e+87
2.754772e+87
-2.632160e+51
-8.492088e+87
4.413783e+87
4.722703e+52
-1.232807e+88
5.809730e+87
1.992978e+53
-1.505225e+88
6.418190e+87
4.124975e+53
-1.516380e+88
5.135034e+87
-1.092753e+22
6.231783e+53
-8.929208e+87
1.151827e+21
4.859947e+87
8.344618e+53
-1.403576e+88
5.450747e+88
1.056558e+54
-2.460792e+89
2.061568e+89
1.275710e+54
-7.324836e+89
4.249029e+89
1.600806e+54
-1.278556e+90
6.772925e+89
3.807283e+54
-1.924828e+90
1.421721e+90
9.827916e+54
-4.823252e+90
3.308043e+90
1.833797e+55
-1.087300e+91
7.664623e+90
2.720474e+55
-2.551436e+91
1.077038e+91
3.881203e+55
-2.534031e+91
-5.547839e+91
4.531558e+55
2.918532e+92
-3.436739e+92
-1.108787e+56
1.346791e+93
-1.683694e+93
-7.498435e+56
6.685877e+93
-2.372729e+93
-3.143139e+57
4.500839e+93
3.297852e+94
-4.275939e+57
1.965931e+22
-1.628118e+95
1.541151e+95
6.608617e+58
-5.719832e+95
4.675004e+95
2.861821e+59
-1.655424e+96
7.105034e+95
5.466615e+59
-1.708397e+96
-4.084403e+96
7.400763e+59
2.137120e+97
-1.911441e+97
1.251070e+60
6.983903e+97
-3.895237e+97
2.443119e+60
1.153420e+98
-6.265996e+97
3.883421e+60
1.825508e+98
-2.049525e+98
5.073141e+60
7.976473e+98
-6.268358e+98
7.281337e+60
2.194329e+99
1.595652e+23
-1.663866e+99
1.573650e+60
5.747738e+99
-2.581632e+99
-2.947128e+61
6.512251e+99
1.292470e+100
-1.174119e+62
-6.891070e+100
8.924069e+100
-2.108371e+62
-3.588255e+101
5.331656e+101
-2.659415e+62
-2.198930e+102
8.547207e+101
-3.391492e+62
-1.856625e+102
-2.987447e+23
-1.127710e+103
-1.267528e+63
5.625593e+103
-5.303578e+103
-3.298937e+63
1.978169e+104
-1.595970e+104
-9.207160e+63
5.661680e+104
-2.672024e+104
-1.062836e+64
-8.417376e+24
7.066547e+104
1.347811e+105
1.380618e+65
-7.229652e+105
1.196925e+106
5.639843e+65
-5.033302e+106
-2.393889e+25
9.732497e+106
3.130007e+66
-4.181006e+107
1.689342e+107
3.674963e+66
-3.858942e+107
-3.514947e+25
-2.312795e+108
-7.890551e+67
1.156880e+109
-1.092591e+109
-2.696383e+68
-6.051048e+25
4.089811e+109
-3.388967e+109
-8.215475e+68
1.217491e+110
-3.333489e+26
-5.625929e+109
-1.110269e+69
1.468190e+110
-9.615161e+26
2.829043e+110
1.082664e+70
-1.519132e+111
-2.443177e+27
1.376923e+111
3.626923e+70
-5.099065e+111
-9.580643e+26
2.920338e+111
6.777837e+70
-8.888889e+111
4.533220e+28
4.617721e+111
9.849288e+70
-1.321263e+112
2.215103e+29
1.050391e+112
1.666033e+71
-3.727376e+112
1.193579e+30
2.633666e+112
2.734856e+71
-8.923282e+112
-2.019007e+29
6.566096e+112
5.221652e+71
-2.263633e+113
-3.892528e+31
1.089505e+113
6.901713e+71
-2.952576e+113
-1.308235e+32
-4.428342e+113
-3.801007e+72
2.450174e+114
-3.391639e+32
-3.231158e+114
-1.297270e+73
1.314854e+115
-2.006256e+32
-2.092330e+115
-1.402218e+73
8.796658e+115
5.709540e+33
-3.992778e+115
-1.933946e+73
1.032839e+116
3.349154e+34
4.178950e+116
-4.248829e+74
-2.134269e+117
2.197091e+35
2.030166e+117
-1.346375e+75
-7.661401e+117
-2.067301e+34
6.467237e+117
-4.057877e+75
-2.352844e+118
-7.463107e+36
1.131658e+118
-6.179487e+75
-3.078126e+118
-2.549972e+37
-5.402280e+118
4.929371e+76
2.941257e+119
-7.054962e+37
-2.688929e+119
1.684911e+77
1.004507e+120
-5.472891e+37
-5.947215e+119
2.995962e+77
1.858680e+120
1.012677e+39
-9.500176e+119
4.292904e+77
2.709276e+120
3.128974e+39
-1.310897e+120
1.259516e+78
3.591728e+120
3.910918e+39
-1.648427e+120
2.951913e+78
4.328859e+120
9.441356e+39
-1.867010e+120
7.625441e+78
4.637401e+120
9.827417e+40
-2.043604e+120
1.196664e+79
5.182695e+120
2.837278e+41
-5.345193e+120
-7.718334e+79
2.070388e+121
5.107093e+41
-1.533381e+121
-3.523747e+80
5.341624e+121
7.819895e+41
-2.990061e+121
-2.576455e+81
9.079546e+121
1.546120e+42
-4.570624e+121
-4.704198e+81
1.294579e+122
3.032059e+42
-7.515331e+121
6.017224e+82
2.333573e+122
6.703097e+42
-1.357705e+122
2.118537e+83
4.223055e+122
5.806773e+42
-2.686176e+122
6.768624e+83
8.763813e+122
-9.123511e+43
-4.242856e+122
1.141241e+84
1.169697e+123
-6.289831e+44
1.137637e+123
-8.136803e+84
-6.755295e+123
-4.897268e+45
6.572058e+123
7.614918e+22
-2.840297e+85
-2.514611e+124
-2.980602e+45
1.764302e+124
-5.257315e+85
-6.032518e+124
1.344542e+47
3.053101e+124
-7.573218e+85
-8.715860e+124
2.677522e+22
4.346835e+47
-5.267279e+124
-1.366382e+86
3.469837e+125
9.881717e+47
-3.444033e+125
-2.392640e+86
1.326916e+126
1.586614e+48
-8.049996e+125
-5.039169e+86
2.572480e+126
1.575739e+49
-1.340656e+126
-7.862184e+86
3.913988e+126
4.776269e+50
-1.914076e+126
3.895619e+87
5.344341e+126