# vtk DataFile Version 2.0
test
ASCII
DATASET UNSTRUCTURED_GRID
POINTS 9129 float
5.000000e-01 -9.000000e+01 2.842171e-14
7.000000e-01 -9.000000e+01 2.842171e-14
5.000000e-01 -8.980000e+01 2.842171e-14
7.354886e-01 -8.976215e+01 2.842171e-14
9.000000e-01 -9.000000e+01 2.842171e-14
9.811036e-01 -8.978008e+01 2.842171e-14
5.000000e-01 -8.960000e+01 2.842171e-14
6.978469e-01 -8.952363e+01 2.842171e-14
5.000000e-01 -8.940000e+01 2.842171e-14
6.923200e-01 -8.931530e+01 2.842171e-14
5.000000e-01 -8.920000e+01 2.842171e-14
6.885288e-01 -8.910843e+01 2.842171e-14
5.000000e-01 -8.900000e+01 2.842171e-14
6.835408e-01 -8.890409e+01 2.842171e-14
5.000000e-01 -8.880000e+01 2.842171e-14
6.795104e-01 -8.870270e+01 2.842171e-14
5.000000e-01 -8.860000e+01 2.842171e-14
6.782638e-01 -8.850215e+01 2.842171e-14
5.000000e-01 -8.840000e+01 2.842171e-14
6.776728e-01 -8.830066e+01 2.842171e-14
5.000000e-01 -8.820000e+01 2.842171e-14
6.756409e-01 -8.809956e+01 2.842171e-14
5.000000e-01 -8.800000e+01 2.842171e-14
6.740446e-01 -8.790022e+01 2.842171e-14
5.000000e-01 -8.780000e+01 2.842171e-14
6.747757e-01 -8.770109e+01 2.842171e-14
5.000000e-01 -8.760000e+01 2.842171e-14
6.760324e-01 -8.750069e+01 2.842171e-14
5.000000e-01 -8.740000e+01 2.842171e-14
6.762739e-01 -8.729988e+01 2.842171e-14
5.000000e-01 -8.720000e+01 2.842171e-14
6.761532e-01 -8.709951e+01 2.842171e-14
5.000000e-01 -8.700000e+01 2.842171e-14
6.760904e-01 -8.689943e+01 2.842171e-14
5.000000e-01 -8.680000e+01 2.842171e-14
6.760769e-01 -8.669941e+01 2.842171e-14
5.000000e-01 -8.660000e+01 2.842171e-14
6.760820e-01 -8.649941e+01 2.842171e-14
5.000000e-01 -8.640000e+01 2.842171e-14
6.760950e-01 -8.629941e+01 2.842171e-14
5.000000e-01 -8.620000e+01 2.842171e-14
6.761115e-01 -8.609941e+01 2.842171e-14
5.000000e-01 -8.600000e+01 2.842171e-14
6.761297e-01 -8.589941e+01 2.842171e-14
5.000000e-01 -8.580000e+01 2.842171e-14
6.761488e-01 -8.569941e+01 2.842171e-14
5.000000e-01 -8.560000e+01 2.842171e-14
6.761684e-01 -8.549941e+01 2.842171e-14
5.000000e-01 -8.540000e+01 2.842171e-14
6.761882e-01 -8.529941e+01 2.842171e-14
5.000000e-01 -8.520000e+01 2.842171e-14
6.762082e-01 -8.509941e+01 2.842171e-14
5.000000e-01 -8.500000e+01 2.842171e-14
6.762282e-01 -8.489941e+01 2.842171e-14
5.000000e-01 -8.480000e+01 2.842171e-14
6.762483e-01 -8.469941e+01 2.842171e-14
5.000000e-01 -8.460000e+01 2.842171e-14
6.762684e-01 -8.449941e+01 2.842171e-14
5.000000e-01 -8.440000e+01 2.842171e-14
6.762884e-01 -8.429941e+01 2.842171e-14
5.000000e-01 -8.420000e+01 2.842171e-14
6.763086e-01 -8.409941e+01 2.842171e-14
5.000000e-01 -8.400000e+01 2.842171e-14
6.763287e-01 -8.389941e+01 2.842171e-14
5.000000e-01 -8.380000e+01 2.842171e-14
6.763488e-01 -8.369941e+01 2.842171e-14
5.000000e-01 -8.360000e+01 2.842171e-14
6.763689e-01 -8.349941e+01 2.842171e-14
5.000000e-01 -8.340000e+01 2.842171e-14
6.763890e-01 -8.329941e+01 2.842171e-14
5.000000e-01 -8.320000e+01 2.842171e-14
6.764091e-01 -8.309941e+01 2.842171e-14
5.000000e-01 -8.300000e+01 2.842171e-14
6.764292e-01 -8.289941e+01 2.842171e-14
5.000000e-01 -8.280000e+01 2.842171e-14
6.764493e-01 -8.269941e+01 2.842171e-14
5.000000e-01 -8.260000e+01 2.842171e-14
6.764694e-01 -8.249941e+01 2.842171e-14
5.000000e-01 -8.240000e+01 2.842171e-14
6.764895e-01 -8.229941e+01 2.842171e-14
5.000000e-01 -8.220000e+01 2.842171e-14
6.765094e-01 -8.209941e+01 2.842171e-14
5.000000e-01 -8.200000e+01 2.842171e-14
6.765293e-01 -8.189941e+01 2.842171e-14
5.000000e-01 -8.180000e+01 2.842171e-14
6.765489e-01 -8.169941e+01 2.842171e-14
5.000000e-01 -8.160000e+01 2.842171e-14
6.765685e-01 -8.149941e+01 2.842171e-14
5.000000e-01 -8.140000e+01 2.842171e-14
6.765881e-01 -8.129941e+01 2.842171e-14
5.000000e-01 -8.120000e+01 2.842171e-14
6.766080e-01 -8.109941e+01 2.842171e-14
5.000000e-01 -8.100000e+01 2.842171e-14
6.766280e-01 -8.089941e+01 2.842171e-14
5.000000e-01 -8.080000e+01 2.842171e-14
6.766484e-01 -8.069941e+01 2.842171e-14
5.000000e-01 -8.060000e+01 2.842171e-14
6.766686e-01 -8.049941e+01 2.842171e-14
5.000000e-01 -8.040000e+01 2.842171e-14
6.766884e-01 -8.029940e+01 2.842171e-14
5.000000e-01 -8.020000e+01 2.842171e-14
6.767059e-01 -8.009939e+01 2.842171e-14
5.000000e-01 -8.000000e+01 2.842171e-14
6.767166e-01 -7.989938e+01 2.842171e-14
5.000000e-01 -7.980000e+01 2.842171e-14
6.767078e-01 -7.969937e+01 2.842171e-14
5.000000e-01 -7.960000e+01 2.842171e-14
6.766750e-01 -7.949938e+01 2.842171e-14
5.000000e-01 -7.940000e+01 2.842171e-14
6.766571e-01 -7.929942e+01 2.842171e-14
5.000000e-01 -7.920000e+01 2.842171e-14
6.767080e-01 -7.909947e+01 2.842171e-14
5.000000e-01 -7.900000e+01 2.842171e-14
6.768297e-01 -7.889950e+01 2.842171e-14
5.000000e-01 -7.880000e+01 2.842171e-14
6.769701e-01 -7.869950e+01 2.842171e-14
5.000000e-01 -7.860000e+01 2.842171e-14
6.770877e-01 -7.849948e+01 2.842171e-14
5.000000e-01 -7.840000e+01 2.842171e-14
6.771826e-01 -7.829946e+01 2.842171e-14
5.000000e-01 -7.820000e+01 2.842171e-14
6.772668e-01 -7.809944e+01 2.842171e-14
5.000000e-01 -7.800000e+01 2.842171e-14
6.773481e-01 -7.789944e+01 2.842171e-14
5.000000e-01 -7.780000e+01 2.842171e-14
6.774304e-01 -7.769943e+01 2.842171e-14
5.000000e-01 -7.760000e+01 2.842171e-14
6.775138e-01 -7.749943e+01 2.842171e-14
5.000000e-01 -7.740000e+01 2.842171e-14
6.775976e-01 -7.729943e+01 2.842171e-14
5.000000e-01 -7.720000e+01 2.842171e-14
6.776819e-01 -7.709943e+01 2.842171e-14
5.000000e-01 -7.700000e+01 2.842171e-14
6.777664e-01 -7.689943e+01 2.842171e-14
5.000000e-01 -7.680000e+01 2.842171e-14
6.778512e-01 -7.669943e+01 2.842171e-14
5.000000e-01 -7.660000e+01 2.842171e-14
6.779362e-01 -7.649943e+01 2.842171e-14
5.000000e-01 -7.640000e+01 2.842171e-14
6.780211e-01 -7.629943e+01 2.842171e-14
5.000000e-01 -7.620000e+01 2.842171e-14
6.781052e-01 -7.609941e+01 2.842171e-14
5.000000e-01 -7.600000e+01 2.842171e-14
6.781844e-01 -7.589937e+01 2.842171e-14
5.000000e-01 -7.580000e+01 2.842171e-14
6.782432e-01 -7.569934e+01 2.842171e-14
5.000000e-01 -7.560000e+01 2.842171e-14
6.782711e-01 -7.549932e+01 2.842171e-14
5.000000e-01 -7.540000e+01 2.842171e-14
6.782987e-01 -7.529933e+01 2.842171e-14
5.000000e-01 -7.520000e+01 2.842171e-14
6.783707e-01 -7.509933e+01 2.842171e-14
5.000000e-01 -7.500000e+01 2.842171e-14
6.784731e-01 -7.489932e+01 2.842171e-14
5.000000e-01 -7.480000e+01 2.842171e-14
6.785462e-01 -7.469932e+01 2.842171e-14
5.000000e-01 -7.460000e+01 2.842171e-14
6.785752e-01 -7.449935e+01 2.842171e-14
5.000000e-01 -7.440000e+01 2.842171e-14
6.785997e-01 -7.429938e+01 2.842171e-14
5.000000e-01 -7.420000e+01 2.842171e-14
6.786012e-01 -7.409929e+01 2.842171e-14
5.000000e-01 -7.400000e+01 2.842171e-14
6.782697e-01 -7.389892e+01 2.842171e-14
5.000000e-01 -7.380000e+01 2.842171e-14
6.769718e-01 -7.369885e+01 2.842171e-14
5.000000e-01 -7.360000e+01 2.842171e-14
6.760325e-01 -7.349962e+01 2.842171e-14
5.000000e-01 -7.340000e+01 2.842171e-14
6.769673e-01 -7.329964e+01 2.842171e-14
5.000000e-01 -7.320000e+01 2.842171e-14
6.773389e-01 -7.309828e+01 2.842171e-14
5.000000e-01 -7.300000e+01 2.842171e-14
6.765623e-01 -7.289730e+01 2.842171e-14
5.000000e-01 -7.280000e+01 2.842171e-14
6.762623e-01 -7.269710e+01 2.842171e-14
5.000000e-01 -7.260000e+01 2.842171e-14
6.762283e-01 -7.249707e+01 2.842171e-14
5.000000e-01 -7.240000e+01 2.842171e-14
6.762684e-01 -7.229706e+01 2.842171e-14
5.000000e-01 -7.220000e+01 2.842171e-14
6.763348e-01 -7.209706e+01 2.842171e-14
5.000000e-01 -7.200000e+01 2.842171e-14
6.764078e-01 -7.189706e+01 2.842171e-14
5.000000e-01 -7.180000e+01 2.842171e-14
6.764836e-01 -7.169706e+01 2.842171e-14
5.000000e-01 -7.160000e+01 2.842171e-14
6.765601e-01 -7.149706e+01 2.842171e-14
5.000000e-01 -7.140000e+01 2.842171e-14
6.766369e-01 -7.129706e+01 2.842171e-14
5.000000e-01 -7.120000e+01 2.842171e-14
6.767137e-01 -7.109706e+01 2.842171e-14
5.000000e-01 -7.100000e+01 2.842171e-14
6.767906e-01 -7.089706e+01 2.842171e-14
5.000000e-01 -7.080000e+01 2.842171e-14
6.768676e-01 -7.069706e+01 2.842171e-14
5.000000e-01 -7.060000e+01 2.842171e-14
6.769447e-01 -7.049706e+01 2.842171e-14
5.000000e-01 -7.040000e+01 2.842171e-14
6.770216e-01 -7.029706e+01 2.842171e-14
5.000000e-01 -7.020000e+01 2.842171e-14
6.770986e-01 -7.009706e+01 2.842171e-14
8.475619e-01 -8.799663e+01 2.842171e-14
5.000000e-01 -7.000000e+01 2.842171e-14
8.468964e-01 -8.780374e+01 2.842171e-14
8.577591e-01 -8.819650e+01 2.842171e-14
6.771756e-01 -6.989706e+01 2.842171e-14
8.559286e-01 -8.760501e+01 2.842171e-14
5.000000e-01 -6.980000e+01 2.842171e-14
8.603507e-01 -8.840364e+01 2.842171e-14
6.772527e-01 -6.969706e+01 2.842171e-14
8.590434e-01 -8.740052e+01 2.842171e-14
5.000000e-01 -6.960000e+01 2.842171e-14
8.585129e-01 -8.719783e+01 2.842171e-14
6.773297e-01 -6.949706e+01 2.842171e-14
5.000000e-01 -6.940000e+01 2.842171e-14
8.581177e-01 -8.699716e+01 2.842171e-14
6.774066e-01 -6.929706e+01 2.842171e-14
8.548659e-01 -8.860506e+01 2.842171e-14
5.000000e-01 -6.920000e+01 2.842171e-14
8.580176e-01 -8.679702e+01 2.842171e-14
6.774837e-01 -6.909706e+01 2.842171e-14
5.000000e-01 -6.900000e+01 2.842171e-14
8.580255e-01 -8.659699e+01 2.842171e-14
6.775607e-01 -6.889706e+01 2.842171e-14
5.000000e-01 -6.880000e+01 2.842171e-14
8.580783e-01 -8.639698e+01 2.842171e-14
6.776377e-01 -6.869706e+01 2.842171e-14
5.000000e-01 -6.860000e+01 2.842171e-14
8.581464e-01 -8.619698e+01 2.842171e-14
6.777146e-01 -6.849706e+01 2.842171e-14
8.588120e-01 -8.880056e+01 2.842171e-14
5.000000e-01 -6.840000e+01 2.842171e-14
8.582218e-01 -8.599698e+01 2.842171e-14
6.777917e-01 -6.829706e+01 2.842171e-14
5.000000e-01 -6.820000e+01 2.842171e-14
8.583001e-01 -8.579698e+01 2.842171e-14
6.778688e-01 -6.809706e+01 2.842171e-14
5.000000e-01 -6.800000e+01 2.842171e-14
8.583796e-01 -8.559698e+01 2.842171e-14
6.779457e-01 -6.789706e+01 2.842171e-14
5.000000e-01 -6.780000e+01 2.842171e-14
8.584595e-01 -8.539698e+01 2.842171e-14
6.780227e-01 -6.769706e+01 2.842171e-14
5.000000e-01 -6.760000e+01 2.842171e-14
8.585397e-01 -8.519698e+01 2.842171e-14
6.780997e-01 -6.749706e+01 2.842171e-14
[...]
CELL_DATA 17013
SCALARS temperature float
LOOKUP_TABLE default
3.700000e+01
3.700000e+01
3.700000e+01
3.700000e+01
3.700000e+01
3.700000e+01
3.700000e+01
3.700000e+01
3.700000e+01
3.700000e+01
3.700000e+01
3.700000e+01
3.700000e+01
3.700000e+01
3.700000e+01
3.700000e+01
3.700000e+01
3.700000e+01
3.700000e+01
3.700000e+01
3.700000e+01
3.700000e+01
3.700000e+01
3.700000e+01
3.700000e+01
3.700000e+01
3.700000e+01
3.700000e+01
3.700000e+01
3.699999e+01
3.699997e+01
3.700019e+01
3.699965e+01
3.700169e+01
3.699777e+01
3.700892e+01
3.699795e+01
3.699781e+01
3.705441e+01
3.673241e+01
3.730087e+01
3.581955e+01
3.796657e+01
3.365271e+01
3.836869e+01
3.441302e+01
2.983175e+01
7.510579e+01
-3.809902e+00
1.941912e+02
-6.621862e+01
3.691723e+02
-1.557873e+02
6.150950e+02
-3.747184e+02
1.397839e+03
-9.745206e+02
3.426934e+03
-2.296234e+03
7.506356e+03
-2.696024e+03
4.762524e+03
1.591334e+04
-8.085646e+04
1.005502e+05
-3.903413e+05
3.365428e+05
-1.164031e+06
2.398279e+05
1.373904e+05
-5.163551e+06
2.415677e+07
-2.497625e+07
9.253901e+07
-6.203068e+07
1.968374e+08
-1.135189e+08
3.327593e+08
-2.038641e+08
6.182596e+08
-3.990712e+08
1.239864e+09
-7.944852e+08
2.444895e+09
-9.898743e+08
2.103303e+09
3.164319e+09
-1.697600e+10
1.728996e+10
-6.385295e+10
3.155444e+10
-8.498039e+10
1.034038e+11
-4.078628e+11
9.969692e+11
-4.286137e+12
5.208393e+12
-2.015743e+13
2.354313e+13
-8.988363e+13
1.103407e+14
-4.227873e+14
5.534241e+14
-2.137676e+15
2.272595e+15
-8.351634e+15
4.101088e+15
-1.042140e+16
-4.808641e+16
2.346141e+17
-6.206451e+17
2.650196e+18
-2.388865e+18
8.446496e+18
-5.225470e+18
1.582644e+19
-9.028855e+18
2.612944e+19
-1.822860e+19
5.863964e+19
-4.295216e+19
1.411682e+20
-9.769396e+19
3.133613e+20
-1.190058e+20
2.396502e+20
6.048390e+20
-3.062058e+21
3.334958e+21
-1.247925e+22
8.011854e+21
-2.483793e+22
1.418846e+22
-4.124721e+22
3.007003e+22
-9.890489e+22
1.950316e+22
8.488665e+21
-5.038771e+23
2.346730e+24
-2.549744e+24
9.562339e+24
-6.830632e+24
2.233305e+25
-1.363721e+25
4.133856e+25
-2.228423e+25
6.268228e+25
-2.932190e+25
7.415172e+25
-3.299600e+25
7.985144e+25
-3.846314e+25
9.977564e+25
-4.595806e+25
1.148657e+26
-4.136455e+25
7.817923e+25
-2.129169e+25
2.109350e+25
-5.588125e+24
4.960196e+24
4.438575e+24
-2.573530e+25
5.275020e+25
-2.190905e+26
2.763429e+26
-1.060179e+27
1.033134e+27
-3.750814e+27
4.296079e+27
-1.636222e+28
-8.339778e+27
5.590523e+28
-2.298310e+29
1.021149e+30
-9.275973e+29
3.301891e+30
-2.509853e+30
8.380493e+30
-2.011689e+30
8.124975e+29
3.027749e+31
-1.430556e+32
1.227394e+32
-4.294024e+32
2.489440e+32
-7.279154e+32
4.540485e+32
-1.385153e+33
1.633013e+33
-6.253123e+33
4.987315e+33
-1.702204e+34
1.232555e+34
-4.047116e+34
1.183289e+34
-1.402853e+34
-1.220986e+35
5.893197e+35
3.700000e+01
-5.177811e+35
3.700000e+01
3.700000e+01
1.831952e+36
3.700000e+01
-1.114709e+36
3.700000e+01
3.365760e+36
3.700002e+01
-1.802321e+36
3.700004e+01
5.028928e+36
-2.997185e+36
3.699945e+01
8.952102e+36
3.700000e+01
-5.292653e+36
3.699549e+01
1.574215e+37
-9.674015e+36
3.697070e+01
2.942660e+37
-1.040100e+37
3.696614e+01
1.878452e+37
5.760255e+37
3.770921e+01
-2.912051e+38
3.700000e+01
2.587233e+38
4.032410e+01
-9.217406e+38
5.375974e+38
4.730925e+01
-1.590124e+39
9.335233e+38
5.118316e+01
-2.773313e+39
2.932638e+39
-6.583945e+01
-1.100356e+40
8.586811e+39
-4.305040e+02
-2.926343e+40
2.145838e+40
-9.520726e+02
-7.134300e+40
2.407692e+40
3.700000e+01
-1.586587e+03
-4.044971e+40
-1.961341e+41
-3.772057e+03
9.695798e+41
-8.610834e+41
-9.615249e+03
3.077300e+42
-1.865824e+42
-2.326196e+04
5.665820e+42
-3.012166e+42
-2.997308e+04
8.433000e+42
-4.932480e+42
1.961072e+05
1.468589e+43
-8.535513e+42
1.051117e+06
2.533035e+43
-1.545254e+43
3.829775e+06
4.717337e+43
-1.824499e+43
4.357873e+06
3.795633e+43
3.700000e+01
7.909031e+43
-6.228409e+07
-4.141575e+44
3.741982e+44
-2.673065e+08
-1.349015e+45
7.871708e+44
-5.786945e+08
-2.347275e+45
1.324536e+45
-9.578285e+08
-3.871977e+45
3.759976e+45
-1.764446e+09
-1.386922e+46
1.057536e+46
-3.542981e+09
-3.595865e+46
2.646321e+46
-7.545855e+09
-8.872979e+46
3.323516e+46
-1.028021e+10
-6.665043e+46
-2.224978e+47
4.455587e+10
1.126352e+48
-1.009741e+48
1.973426e+11
3.700000e+01
3.642814e+48
-2.197097e+48
1.956174e+11
6.703048e+48
-3.534592e+48
4.644011e+11
9.921628e+48
-5.698483e+48
1.026534e+13
1.691462e+49
-9.676098e+48
4.854815e+13
2.866573e+49
-1.742610e+49
2.086996e+14
5.349734e+49
-2.194084e+49
3.700000e+01
9.354886e+14
4.948164e+49
7.965291e+49
5.260052e+15
-4.304727e+50
3.597599e+50
2.539837e+16
-1.271994e+51
3.859603e+50
8.587776e+16
-5.317034e+50
9.855090e+50
-2.044304e+17
-4.153419e+51
1.908234e+52
-7.095798e+18
-8.676803e+52
7.855546e+52
-2.480255e+19
-2.856344e+53
2.289503e+53
-4.666690e+19
-7.991228e+53
3.177180e+53
-7.330705e+19
-6.951057e+53
-2.112919e+54
-1.648166e+20
1.080771e+55
-9.726060e+54
-4.044403e+20
3.535400e+55
-2.135896e+55
-1.000871e+21
6.571715e+55
-3.417217e+55
-1.460308e+21
9.577344e+55
-4.762245e+55
7.870580e+21
1.292292e+56
-6.120185e+55
3.716511e+22
1.598448e+56
-7.305650e+55
7.452022e+22
1.851680e+56
-8.490148e+55
1.160686e+23
2.159233e+56
-1.421739e+56
3.392680e+23
4.586327e+56
-2.946076e+56
4.845462e+23
9.392616e+56
-5.148678e+56
-6.069866e+24
1.500560e+57
-7.575834e+56
-2.806902e+25
2.087134e+57
-1.185315e+57
-6.719834e+25
3.535323e+57
-2.027338e+57
-1.265414e+26
6.085117e+57
-3.704362e+57
-1.948381e+26
1.150942e+58
-5.062414e+57
-2.292498e+26
1.245166e+58
1.608566e+58
-2.427577e+26
-9.000764e+58
1.159087e+59
-3.092080e+26
-4.638819e+59
6.456550e+59
-3.667137e+26
-2.623481e+60
9.609334e+59
-2.460812e+26
-1.917814e+60
-1.340514e+61
-5.577882e+25
6.638471e+61
-6.216641e+61
-1.866759e+25
2.305281e+62
-1.822772e+62
4.041182e+25
6.392867e+62
-2.845542e+62
4.852697e+26
7.110560e+62
1.373548e+63
2.659673e+27
-7.338999e+63
6.654735e+63
9.133573e+27
-2.447614e+64
1.399513e+64
6.768005e+28
-4.219560e+64
2.225027e+64
3.715273e+28
-6.374196e+64
5.516331e+64
-2.671153e+30
-2.001386e+65
1.462284e+65
-8.958404e+30
-4.986889e+65
3.665470e+65
-2.719266e+31
-1.253654e+66
5.750943e+65
-3.294981e+31
-1.483166e+66
-2.649579e+66
3.852367e+32
1.430154e+67
-1.965866e+67
1.251864e+33
8.011668e+67
-1.293055e+68
2.049773e+33
5.415008e+68
-2.194270e+68
3.113657e+33
5.022113e+68
2.800314e+69
1.703690e+34
-1.403549e+70
1.326834e+70
4.722761e+34
-4.964252e+70
4.094403e+70
1.305330e+35
-1.467375e+71
6.747270e+70
1.715218e+35
-1.751463e+71
-3.394006e+71
-1.599079e+36
3.700000e+01
3.700000e+01
1.820530e+72
3.700000e+01
3.700000e+01
-1.650222e+72
-5.363344e+36
3.699999e+01
6.106586e+72
-3.502318e+72
3.699994e+01
3.700000e+01
-9.962805e+36
1.065918e+73
-5.536229e+72
3.699995e+01
-1.444563e+37
1.582261e+73
-1.239019e+73
3.700237e+01
-2.602220e+37
4.368810e+73
3.700000e+01
3.701448e+01
-3.063974e+73
-4.542404e+37
1.033915e+74
3.708831e+01
-7.509845e+73
-9.348775e+37
2.573138e+74
3.702179e+01
-1.238839e+74
-1.240792e+38
3.354500e+74
3.442584e+01
4.907968e+74
8.010897e+38
-2.722618e+75
2.781629e+01
3.831532e+75
2.762017e+39
-1.576873e+76
3.700000e+01
1.017900e+01
2.698698e+76
4.671095e+39
-1.146071e+77
1.535939e+01
5.126761e+76
6.765337e+39
-1.307664e+77
4.289293e+02
-5.674261e+77
3.097017e+40
2.886618e+78
1.306711e+03
-2.738449e+78
8.316702e+40
1.031856e+79
2.260786e+03
-8.653544e+78
2.329287e+41
3.138878e+79
3.510804e+03
-1.502438e+79
3.456993e+41
4.066777e+79
9.953988e+03
7.157703e+79
-2.700433e+42
-3.893800e+80
3.700000e+01
2.401922e+04
3.560726e+80
-9.271168e+42
-1.329284e+81
5.796846e+04
7.878398e+80
-1.726040e+43
-2.461430e+81
4.898021e+04
1.256988e+81
-2.500170e+43
-3.578874e+81
-7.393180e+05
1.692536e+81
-4.399917e+43
-4.549428e+81
-2.936304e+06
2.003401e+81
-7.519937e+43
-5.065896e+81
-1.059547e+07
1.957391e+81
-1.521520e+44
-4.314063e+81
-5.692348e+06
1.816158e+81
-2.181650e+44
-4.402504e+81
2.246209e+08
1.040002e+82
1.167539e+45
-4.609352e+82
7.175644e+08
3.762176e+82
4.155444e+45
-1.357857e+83
3.700000e+01
1.320514e+09
7.792442e+82
7.147505e+45
-2.399197e+83
2.045717e+09
1.218523e+83
1.006911e+46
-3.469849e+83
4.159330e+09
1.944928e+83
4.032123e+46
-5.910745e+83
8.286849e+09
3.326366e+83
1.048866e+47
-1.013808e+84
1.836873e+10
6.358133e+83
2.938237e+47
-2.057957e+84
1.880160e+10
9.838123e+83
4.770345e+47
-2.682857e+84
-1.763597e+11
-2.803769e+84
-3.219872e+48
1.643550e+85
-5.259900e+11
-1.541460e+85
-1.129192e+49
5.832825e+85
-1.517449e+11
-3.376475e+85
-2.100705e+49
1.048643e+86
-1.322532e+12
-5.410042e+85
3.700000e+01
-3.033369e+49
1.563745e+86
-3.469311e+13
-1.124800e+86
-5.218833e+49
3.886570e+86
-1.348585e+14
-2.669434e+86
-8.744550e+49
9.048020e+86
-5.892407e+14
-7.705749e+86
-1.757448e+50
2.836622e+87
-2.625576e+15
-2.715841e+87
3.700000e+01
-2.664510e+50
1.036482e+88
-1.564877e+16
-1.548796e+88
1.281941e+51
6.506641e+88
-7.415392e+16
-8.515630e+88
4.406744e+51
3.488045e+89
-2.448991e+17
-3.914866e+89
6.845155e+50
1.548895e+90
8.193506e+17
-5.017154e+51
2.502066e+53
8.409396e+53
2.703625e+54
4.871781e+54
-3.172590e+55
-1.125172e+56
-2.120810e+56
-3.087161e+56
-4.189727e+56
-5.195330e+56
-6.001454e+56
-6.531837e+56
-1.439223e+57
-3.047338e+57
-4.900613e+57
-6.635189e+57
-1.134143e+58
-1.932654e+58
-3.893238e+58
-6.522039e+58
2.338074e+59
1.116891e+60
9.364034e+60
2.219667e+61
-1.982516e+62
-7.103776e+62
-2.211535e+63
-4.282112e+63
2.242812e+64
8.191701e+64
1.407865e+65
1.873806e+65
6.360909e+65
1.575387e+66
4.361172e+66
8.796391e+66
-3.669908e+67
-1.787947e+68
-1.960529e+69
-5.136422e+69
4.292870e+70
1.551891e+71
5.187576e+71
1.079959e+72
3.700000e+01
3.700000e+01
-5.712279e+72
3.700000e+01
3.700000e+01
3.700001e+01
-2.095182e+73
3.700019e+01
-3.659580e+73
3.700000e+01
3.700063e+01
-4.924238e+73
3.699457e+01
-1.435180e+74
3.697458e+01
-3.357444e+74
3.669859e+01
3.700000e+01
-9.106937e+74
3.619035e+01
-1.911302e+75
4.368868e+01
7.100136e+75
6.136634e+01
3.455386e+76
1.240266e+02
4.198618e+77
2.246606e+02
3.700000e+01
1.180102e+78
-1.032243e+03
-9.059339e+78
-3.852106e+03
-3.295154e+79
-6.706733e+03
-1.131203e+80
-8.980528e+03
-2.480422e+80
-2.799949e+04
1.250956e+81
-6.717352e+04
4.648039e+81
-1.910332e+05
8.709005e+81
3.700000e+01
-3.973910e+05
1.271334e+82
1.823949e+06
1.625030e+82
7.274319e+06
1.830699e+82
3.691495e+07
1.515397e+82
9.064208e+07
5.720353e+81
-6.117059e+08
1.530716e+83
-2.194029e+09
4.821681e+83
-4.069096e+09
8.587013e+83
-5.922630e+09
1.211998e+84
3.700000e+01
-1.230359e+10
2.081019e+84
-2.391421e+10
3.499403e+84
-6.073978e+10
7.519345e+84
-1.225353e+11
1.444038e+85
5.044665e+11
-5.394644e+85
1.889144e+12
-2.101381e+86
-5.263785e+10
-3.791852e+86
-6.359559e+12
3.700000e+01
-5.245026e+86
8.723380e+13
-1.345705e+87
3.060716e+14
-2.955023e+87
1.308852e+15
-8.996686e+87
4.530941e+15
-2.640122e+88
3.405845e+16
-1.809847e+89
1.984384e+17
-1.032447e+90
1.203707e+18
3.700000e+01
3.700000e+01
3.700000e+01
3.700000e+01
3.700000e+01
3.700000e+01
3.700000e+01
3.700000e+01
3.700000e+01
3.700000e+01
3.700000e+01
3.700000e+01
3.700000e+01
3.700000e+01
3.700000e+01
3.700000e+01
3.700000e+01
3.700000e+01
3.700000e+01
3.700000e+01
3.700000e+01
3.700000e+01
3.700000e+01
3.700000e+01
3.700000e+01
3.700000e+01
3.700000e+01
3.700000e+01
3.700000e+01
3.700000e+01
3.700000e+01
3.700000e+01
3.700000e+01
3.700000e+01
3.700000e+01
3.700000e+01
3.700000e+01
3.700000e+01
3.700000e+01
3.700000e+01
3.700000e+01
3.700000e+01
3.700000e+01
3.700000e+01
3.700000e+01
3.700000e+01
3.700000e+01
3.700000e+01
3.700000e+01
3.700000e+01
3.700000e+01
3.700000e+01
3.700000e+01
3.700000e+01
3.700000e+01
3.700000e+01
3.700000e+01
3.700000e+01
3.700000e+01
3.700000e+01
3.700000e+01
3.700000e+01
3.700000e+01
3.700000e+01
3.700000e+01
3.700000e+01
3.700000e+01
3.700000e+01
3.700002e+01
3.699999e+01
3.700003e+01
3.699998e+01
3.700007e+01
3.699986e+01
3.700067e+01
3.699939e+01
3.700239e+01
3.699852e+01
3.700493e+01
3.699739e+01
3.700804e+01
3.699542e+01
3.701477e+01
3.699081e+01
3.703079e+01
3.697906e+01
3.707113e+01
3.696308e+01
3.700000e+01
3.709404e+01
3.710906e+01
3.628484e+01
3.854208e+01
3.008183e+01
4.679931e+01
-1.805425e+00
4.719678e+01
3.424163e+01
-1.739723e+02
1.042611e+03
-9.449983e+02
3.663443e+03
-2.058295e+03
7.098576e+03
-6.480376e+03
3.195232e+04
-1.113365e+05
5.222564e+05
-1.465506e+06
3.700000e+01
6.315232e+06
-1.040704e+07
4.155833e+07
-4.305525e+06
-2.454968e+07
3.068401e+08
-1.411195e+09
3.700000e+01
1.440601e+09
-5.301194e+09
3.446147e+09
-1.073338e+10
5.790610e+09
-1.619541e+10
8.141679e+09
-2.166487e+10
1.053831e+10
-2.735624e+10
1.303056e+10
-3.330257e+10
1.674876e+10
-4.475714e+10
3.204000e+10
-1.047162e+11
7.757570e+10
-2.570785e+11
1.563153e+11
-4.715559e+11
2.512800e+11
-6.994475e+11
3.561005e+11
-9.603180e+11
3.789447e+11
-8.071679e+11
-6.576717e+11
3.869252e+12
3.700000e+01
-5.482244e+12
2.165183e+13
-1.974315e+13
7.018892e+13
-1.027647e+13
-2.386285e+13
4.170863e+14
-1.931944e+15
1.978946e+15
-7.328098e+15
4.508354e+15
-1.375171e+16
7.058458e+15
-1.924913e+16
1.110260e+16
-3.269021e+16
2.022575e+16
-6.195692e+16
3.401737e+16
-9.722095e+16
4.808821e+16
3.700000e+01
-1.278071e+17
6.289685e+16
-1.666520e+17
3.394501e+16
8.669571e+15
-1.813210e+17
8.478438e+17
-8.429581e+17
3.108971e+18
-1.869128e+18
5.594303e+18
-2.777313e+18
7.285483e+18
3.700000e+01
-3.901235e+18
1.082194e+19
-1.015859e+19
3.653981e+19
-2.801443e+19
9.382630e+19
-6.686290e+19
2.171790e+20
-3.910153e+19
3.700000e+01
-3.930996e+19
9.522111e+20
-4.426743e+21
4.811195e+21
-1.802408e+22
3.700000e+01
1.869642e+22
-6.925889e+22
1.310507e+21
6.529806e+22
3.700000e+01
-5.091905e+23
2.328574e+24
-2.137400e+24
7.661407e+24
3.700000e+01
-5.875811e+24
1.977079e+25
3.700000e+01
-5.645502e+24
6.217219e+24
6.458132e+25
3.700000e+01
-3.106913e+26
2.727111e+26
3.700000e+01
-9.654225e+26
5.888059e+26
3.700000e+01
-1.781973e+27
9.508054e+26
3.700000e+01
-2.649331e+27
1.519416e+27
3.700000e+01
-4.439927e+27
2.524534e+27
3.700000e+01
-7.341170e+27
4.339727e+27
3.700000e+01
-1.292469e+28
4.824687e+27
3.700000e+01
-9.470399e+27
-2.048180e+28
3.700000e+01
1.064872e+29
-9.230279e+28
3.700000e+01
3.264651e+29
-1.595858e+29
3.700000e+01
4.181470e+29
-3.549218e+29
3.700000e+01
1.247312e+30
-2.816599e+30
3.700000e+01
1.203372e+31
-1.048738e+31
3.700000e+01
3.721607e+31
-2.852716e+31
3.700000e+01
9.666029e+31
-3.257702e+31
3.700000e+01
5.468296e+31
2.787816e+32
3.700000e+01
-1.376063e+33
1.214946e+33
3.700000e+01
-4.337186e+33
2.572877e+33
3.700000e+01
-7.723899e+33
4.253040e+33
3.699999e+01
-1.220340e+34
9.776847e+33
3.699993e+01
-3.378123e+34
2.401555e+34
3.699989e+01
-7.909875e+34
5.531608e+34
3.699983e+01
-1.809494e+35
6.415176e+34
3.699797e+01
-1.181521e+35
-4.875859e+35
3.699238e+01
2.435347e+36
-2.965474e+36
3.698406e+01
1.157059e+37
-1.453916e+37
3.700000e+01
3.697431e+01
5.713013e+37
-1.205908e+37
3.695348e+01
3.700000e+01
-1.510474e+36
3.547291e+38
3.690527e+01
-1.683831e+39
3.700000e+01
1.573794e+39
3.677750e+01
-5.746962e+39
4.580163e+39
3.661323e+01
-1.586070e+40
5.885145e+39
3.847050e+01
-1.166620e+40
-4.405089e+40
5.304722e+01
3.700000e+01
2.215504e+41
-1.978451e+41
1.644304e+02
7.134469e+41
-4.289134e+41
2.376898e+02
1.307427e+42
-6.901817e+41
-2.661857e+03
1.940829e+42
-1.146429e+42
-1.111817e+04
3.462926e+42
-2.035510e+42
-2.293371e+04
6.133957e+42
-3.827320e+42
-3.186877e+04
1.192749e+43
-4.875013e+42
-4.580135e+05
1.096672e+43
1.970848e+43
-1.187151e+07
-1.052541e+44
9.679453e+43
-1.438694e+08
-3.533818e+44
2.153349e+44
-2.156647e+08
-6.638094e+44
3.450165e+44
3.670275e+09
-9.636603e+44
4.541348e+44
1.554640e+10
-1.176604e+45
5.016969e+44
3.220802e+10
-1.185324e+45
4.013950e+44
3.700000e+01
4.867783e+10
-6.979777e+44
3.700000e+01
3.798919e+44
6.518542e+10
-1.097147e+45
4.260739e+45
8.250778e+10
-1.923552e+46
1.611486e+46
9.954659e+10
-5.725677e+46
3.321380e+46
1.248024e+11
-9.994216e+46
5.294258e+46
2.970998e+11
-1.504599e+47
1.111330e+47
7.676402e+11
-3.770237e+47
2.585829e+47
1.432952e+12
-8.499200e+47
5.991277e+47
2.125974e+12
-1.994405e+48
8.418981e+47
3.030762e+12
-1.980799e+48
-4.336635e+48
3.522064e+12
2.281358e+49
-2.686430e+49
-8.772225e+12
1.052759e+50
-1.316110e+50
-5.904833e+13
5.226215e+50
-1.854713e+50
-2.471352e+14
3.518212e+50
2.577864e+51
-3.381124e+14
3.700000e+01
-1.272667e+52
1.204687e+52
5.157305e+15
-4.471077e+52
3.654356e+52
2.235455e+16
-1.294011e+53
5.553862e+52
4.270554e+16
-1.335419e+53
-3.192695e+53
5.780970e+16
1.670543e+54
-1.494135e+54
9.773256e+16
5.459176e+54
-3.044828e+54
1.908902e+17
9.016050e+54
-4.898003e+54
3.034656e+17
1.426963e+55
-1.602072e+55
3.965013e+17
6.235048e+55
-4.899849e+55
5.692918e+17
1.715263e+56
3.700000e+01
-1.300611e+56
1.237186e+17
4.492891e+56
-2.018010e+56
-2.301069e+18
5.090494e+56
1.010298e+57
-9.169602e+18
-5.386611e+57
6.975765e+57
-1.646496e+19
-2.804866e+58
4.167648e+58
-2.076708e+19
-1.718859e+59
6.681179e+58
-2.651029e+19
-1.451286e+59
3.700000e+01
-8.815080e+59
-9.919082e+19
4.397413e+60
-4.145700e+60
-2.580806e+20
1.546295e+61
-1.247538e+61
-7.184846e+20
4.425621e+61
-2.088668e+61
-8.194203e+20
3.700000e+01
5.523777e+61
1.053557e+62
1.084525e+22
-5.651273e+62
9.356123e+62
4.423364e+22
-3.934431e+63
3.700000e+01
7.607696e+63
2.449240e+23
-3.268208e+64
1.320524e+64
2.871619e+23
-3.016457e+64
3.700000e+01
-1.807865e+65
-6.170442e+24
9.043100e+65
-8.540566e+65
-2.108732e+25
3.700000e+01
3.196923e+66
-2.649087e+66
-6.424909e+25
9.516882e+66
3.700000e+01
-4.397675e+66
-8.685401e+25
1.147655e+67
3.700000e+01
2.211406e+67
8.461656e+26
-1.187475e+68
3.700000e+01
1.076313e+68
2.834883e+27
-3.985836e+68
3.700000e+01
2.282769e+68
5.297808e+27
-6.948265e+68
3.700000e+01
3.609579e+68
7.698728e+27
-1.032804e+69
3.700000e+01
8.210692e+68
1.302320e+28
-2.913614e+69
3.700000e+01
2.058684e+69
2.137947e+28
-6.975150e+69
3.700000e+01
5.132585e+69
4.082288e+28
-1.769436e+70
3.700000e+01
8.516440e+69
5.396653e+28
-2.307969e+70
3.700000e+01
-3.461546e+70
-2.970754e+29
1.915252e+71
3.700000e+01
-2.525731e+71
-1.013980e+30
1.027795e+72
3.700000e+01
-1.635532e+72
-1.096047e+30
6.876170e+72
3.700000e+01
-3.121074e+72
-1.512030e+30
8.073491e+72
3.700000e+01
3.266601e+73
-3.321392e+31
-1.668315e+74
3.700000e+01
1.586940e+74
-1.052486e+32
-5.988762e+74
3.700000e+01
5.055309e+74
-3.172098e+32
-1.839170e+75
3.700000e+01
8.845943e+74
-4.830665e+32
-2.406109e+75
3.700000e+01
-4.222854e+75
3.853137e+33
2.299121e+76
3.699999e+01
-2.101882e+76
1.317053e+34
7.852028e+76
3.699999e+01
-4.648818e+76
2.341874e+34
1.452893e+77
3.700006e+01
-7.426096e+76
3.355655e+34
2.117786e+77
3.700021e+01
-1.024702e+77
9.845244e+34
2.807582e+77
3.700022e+01
-1.288542e+77
2.307376e+35
3.383782e+77
3.700050e+01
-1.459404e+77
5.960349e+35
3.624962e+77
3.700708e+01
-1.597444e+77
9.353225e+35
4.051208e+77
3.702091e+01
-4.178230e+77
-6.033446e+36
1.618380e+78
3.703751e+01
-1.198613e+78
-2.754457e+37
4.175440e+78
3.705693e+01
-2.337270e+78
-2.013956e+38
7.097298e+78
3.711413e+01
-3.572764e+78
-3.677139e+38
1.011947e+79
3.723248e+01
-5.874583e+78
4.703556e+39
1.824107e+79
3.756837e+01
-1.061290e+79
1.656022e+40
3.301077e+79
3.773785e+01
-2.099729e+79
5.290904e+40
6.850495e+79
3.052552e+01
-3.316554e+79
8.920865e+40
9.143288e+79
-1.386054e+01
8.892676e+79
-6.360373e+41
-5.280478e+80
-3.656162e+02
5.137245e+80
3.700000e+01
-2.220203e+42
-1.965620e+81
-2.956261e+02
1.379120e+81
-4.109537e+42
-4.715497e+81
9.981124e+03
2.386547e+81
-5.919833e+42
-6.813012e+81
3.700000e+01
3.024812e+04
-4.117326e+81
-1.068074e+43
2.712301e+82
5.860178e+04
-2.692131e+82
-1.870279e+43
1.037224e+83
8.069261e+04
-6.292519e+82
-3.939018e+43
2.010855e+83
1.338037e+06
-1.047964e+83
-6.145713e+43
3.059485e+83
3.864752e+07
-1.496194e+83
3.045126e+44
4.177563e+83
4.778699e+08
1.112230e+45
3.700000e+01
2.122302e+45
3.102849e+45
3.817489e+45
3.919617e+45
2.038647e+45
-5.802830e+44
5.744206e+46
1.839499e+47
3.700000e+01
3.216924e+47
4.469560e+47
1.167254e+48
2.608922e+48
6.769050e+48
1.223826e+49
-6.115607e+49
-2.667275e+50
-1.851807e+51
-4.169317e+51
3.747705e+52
1.351080e+53
3.700000e+01
3.700000e+01
4.462075e+53
8.648209e+53
-5.071183e+54
-1.817496e+55
-2.957828e+55
-3.748165e+55
-1.936544e+56
-5.335640e+56
-1.554874e+57
3.700000e+01